 Gaussian 09, Revision A.02,
 Gaussian 09:  EM64L-G09RevA.02 11-Jun-2009

 -----------------------------
 #p B3LYP/6-31+g** opt out=wfn
 -----------------------------

 ----------------
 floruro di litio
 ----------------
 Symbolic Z-matrix:
 Charge =  0 Multiplicity = 1

 SCF Done:  E(RB3LYP) =  -107.432625942     A.U. after    9 cycles
 SCF Done:  E(RB3LYP) =  -107.434524852     A.U. after    8 cycles
 SCF Done:  E(RB3LYP) =  -107.434884610     A.U. after    7 cycles
 Optimization completed.
    -- Stationary point found.

                         Standard orientation:
 ---------------------------------------------------------------------
 Center     Atomic      Atomic             Coordinates (Angstroms)
 Number     Number       Type             X           Y           Z
 ---------------------------------------------------------------------
      1          3           0        0.000000    0.000000   -1.189492
      2          9           0        0.000000    0.000000    0.396497
 ---------------------------------------------------------------------

 The electronic state is 1-SG.
 Alpha  occ. eigenvalues --  -24.55128  -2.00804  -1.00060  -0.29478  -0.27986
 Alpha  occ. eigenvalues --   -0.27986
 Alpha virt. eigenvalues --   -0.05429   0.00297   0.00297   0.00414   0.01774
 Alpha virt. eigenvalues --    0.03608   0.03608   0.06455   0.14912   0.16084
 Alpha virt. eigenvalues --    0.16084   0.27193   0.31017   0.31017   0.31992

 Mulliken atomic charges:
              1
     1  Li   0.662893
     2  F   -0.662893
 Sum of Mulliken atomic charges =  -0.00000

 Dipole moment (field-independent basis, Debye):
    X=              0.0000    Y=              0.0000    Z=             -6.4281  Tot=              6.4281
 Quadrupole moment (field-independent basis, Debye-Ang):
   XX=             -7.6784   YY=             -7.6784   ZZ=             -1.0826
   XY=              0.0000   XZ=              0.0000   YZ=              0.0000

 Normal termination of Gaussian 09 at Fri May 24 11:35:36 2024.
