 Gaussian 09, Revision A.02,
 Gaussian 09:  EM64L-G09RevA.02 11-Jun-2009

 --------------------------------
 # p B3LYP/6-31G** opt output=wfn
 --------------------------------

 -----
 acqua
 -----
 Symbolic Z-matrix:
 Charge =  0 Multiplicity = 1

 SCF Done:  E(RB3LYP) =  -76.4186536499     A.U. after    9 cycles
 SCF Done:  E(RB3LYP) =  -76.4197044440     A.U. after    9 cycles
 SCF Done:  E(RB3LYP) =  -76.4197366208     A.U. after    7 cycles
 Optimization completed.
    -- Stationary point found.

                         Standard orientation:
 ---------------------------------------------------------------------
 Center     Atomic      Atomic             Coordinates (Angstroms)
 Number     Number       Type             X           Y           Z
 ---------------------------------------------------------------------
      1          8           0       -0.000000    0.000000    0.119173
      2          1           0       -0.000000    0.759392   -0.476691
      3          1           0       -0.000000   -0.759392   -0.476691
 ---------------------------------------------------------------------

 The electronic state is 1-A1.
 Alpha  occ. eigenvalues --  -19.13799  -0.99732  -0.51504  -0.37099  -0.29196
 Alpha virt. eigenvalues --    0.06537   0.15125   0.75693   0.80551   0.89136
 Alpha virt. eigenvalues --    0.89352   1.01558   1.17532   1.52947   1.53781
 Alpha virt. eigenvalues --    1.64370   2.23876   2.26815   2.45021   2.64118

 Mulliken atomic charges:
              1
     1  O   -0.609881
     2  H    0.304940
     3  H    0.304940
 Sum of Mulliken atomic charges =   0.00000

 Dipole moment (field-independent basis, Debye):
    X=             -0.0000    Y=              0.0000    Z=             -2.0426  Tot=              2.0426
 Quadrupole moment (field-independent basis, Debye-Ang):
   XX=             -7.1377   YY=             -4.2962   ZZ=             -5.9762
   XY=              0.0000   XZ=              0.0000   YZ=              0.0000

 Normal termination of Gaussian 09 at Fri May 17 12:34:34 2024.
