 Gaussian 09, Revision A.02,
 Gaussian 09:  EM64L-G09RevA.02 11-Jun-2009

 -----------------------------
 #p B3LYP/6-31+g** opt out=wfn
 -----------------------------

 -------
 benzene
 -------
 Symbolic Z-matrix:
 Charge =  0 Multiplicity = 1

 SCF Done:  E(RB3LYP) =  -232.264207786     A.U. after   11 cycles
 SCF Done:  E(RB3LYP) =  -232.268060910     A.U. after   11 cycles
 SCF Done:  E(RB3LYP) =  -232.268391658     A.U. after   11 cycles
 SCF Done:  E(RB3LYP) =  -232.268397570     A.U. after   12 cycles
 Optimization completed.
    -- Stationary point found.

                         Standard orientation:
 ---------------------------------------------------------------------
 Center     Atomic      Atomic             Coordinates (Angstroms)
 Number     Number       Type             X           Y           Z
 ---------------------------------------------------------------------
      1          6           0        1.211370    0.698675   -0.000000
      2          6           0       -0.000000    1.398154   -0.000000
      3          6           0       -1.210836    0.699702   -0.000000
      4          6           0       -1.211172   -0.699024    0.000000
      5          6           0       -0.000608   -1.398154    0.000000
      6          6           0        1.211124   -0.699167    0.000000
      7          1           0        0.001304    2.484580   -0.000000
      8          1           0       -2.151639    1.243022   -0.000000
      9          1           0       -2.152053   -1.242216    0.000000
     10          1           0       -0.000507   -2.484594    0.000000
     11          1           0        2.151286   -1.243621    0.000000
     12          1           0        2.152344    1.241715   -0.000000
 ---------------------------------------------------------------------

 The electronic state is 1-A'.
 Alpha  occ. eigenvalues --  -10.19881 -10.19855 -10.19855 -10.19800 -10.19799
 Alpha  occ. eigenvalues --  -10.19773  -0.85701  -0.74993  -0.74989  -0.60672
 Alpha  occ. eigenvalues --   -0.60669  -0.52661  -0.46649  -0.44880  -0.42583
 Alpha  occ. eigenvalues --   -0.42575  -0.36975  -0.34895  -0.34894  -0.25765
 Alpha  occ. eigenvalues --   -0.25761
 Alpha virt. eigenvalues --   -0.01548  -0.01547   0.00845   0.02563   0.02563
 Alpha virt. eigenvalues --    0.04540   0.04541   0.06650   0.07779   0.07948
 Alpha virt. eigenvalues --    0.09188   0.09212   0.09904   0.12484   0.14268

 Mulliken atomic charges:
              1
     1  C   -0.123869
     2  C   -0.124491
     3  C   -0.123852
     4  C   -0.123874
     5  C   -0.124505
     6  C   -0.123870
     7  H    0.124080
     8  H    0.124094
     9  H    0.124078
    10  H    0.124061
    11  H    0.124072
    12  H    0.124077
 Sum of Mulliken atomic charges =  -0.00000

 Dipole moment (field-independent basis, Debye):
    X=              0.0002    Y=             -0.0004    Z=              0.0000  Tot=              0.0004
 Quadrupole moment (field-independent basis, Debye-Ang):
   XX=            -32.2462   YY=            -32.2466   ZZ=            -40.3458
   XY=              0.0003   XZ=             -0.0000   YZ=             -0.0000

 Normal termination of Gaussian 09 at Fri Jun 28 18:59:58 2024.
