 Gaussian 09, Revision A.02,
 Gaussian 09:  EM64L-G09RevA.02 11-Jun-2009

 ----------------------------
 #p B3LYP/6-31g** opt out=wfn
 ----------------------------

 ------
 ethane
 ------
 Symbolic Z-matrix:
 Charge =  0 Multiplicity = 1

 SCF Done:  E(RB3LYP) =  -79.7226441476     A.U. after   12 cycles
 SCF Done:  E(RB3LYP) =  -79.7603953909     A.U. after   11 cycles
 SCF Done:  E(RB3LYP) =  -79.8013507155     A.U. after   11 cycles
 SCF Done:  E(RB3LYP) =  -79.8294038676     A.U. after   11 cycles
 SCF Done:  E(RB3LYP) =  -79.8380936088     A.U. after   11 cycles
 SCF Done:  E(RB3LYP) =  -79.8384517683     A.U. after    9 cycles
 SCF Done:  E(RB3LYP) =  -79.8385715653     A.U. after   11 cycles
 SCF Done:  E(RB3LYP) =  -79.8386910270     A.U. after    9 cycles
 SCF Done:  E(RB3LYP) =  -79.8387373778     A.U. after   10 cycles
 SCF Done:  E(RB3LYP) =  -79.8387392226     A.U. after   11 cycles
 Optimization completed.
    -- Stationary point found.

                         Standard orientation:
 ---------------------------------------------------------------------
 Center     Atomic      Atomic             Coordinates (Angstroms)
 Number     Number       Type             X           Y           Z
 ---------------------------------------------------------------------
      1          6           0       -0.765027   -0.000091   -0.000049
      2          6           0        0.764960    0.000013   -0.000029
      3          1           0       -1.164366    0.591302   -0.830693
      4          1           0       -1.163678    0.424323    0.927387
      5          1           0       -1.164293   -1.015160   -0.096266
      6          1           0        1.164165   -0.591343    0.830718
      7          1           0        1.164451   -0.423790   -0.927390
      8          1           0        1.164124    1.015140    0.096709
 ---------------------------------------------------------------------

 The electronic state is 1-A.
 Alpha  occ. eigenvalues --  -10.17260 -10.17239  -0.74769  -0.61194  -0.42947
 Alpha  occ. eigenvalues --   -0.42942  -0.36313  -0.33920  -0.33913
 Alpha virt. eigenvalues --    0.10499   0.15617   0.16394   0.16395   0.19005
 Alpha virt. eigenvalues --    0.19011   0.24207   0.50799   0.53950   0.53953
 Alpha virt. eigenvalues --    0.61909   0.61921   0.66618   0.86643   0.86646

 Mulliken atomic charges:
              1
     1  C   -0.314620
     2  C   -0.314641
     3  H    0.104877
     4  H    0.104875
     5  H    0.104902
     6  H    0.104870
     7  H    0.104863
     8  H    0.104873
 Sum of Mulliken atomic charges =  -0.00000

 Dipole moment (field-independent basis, Debye):
    X=             -0.0000    Y=              0.0001    Z=              0.0002  Tot=              0.0002
 Quadrupole moment (field-independent basis, Debye-Ang):
   XX=            -15.1777   YY=            -14.7237   ZZ=            -14.7258
   XY=             -0.0000   XZ=              0.0003   YZ=             -0.0000

 Normal termination of Gaussian 09 at Fri May 17 11:38:12 2024.
