 Gaussian 09, Revision A.02,
 Gaussian 09:  EM64L-G09RevA.02 11-Jun-2009

 -----------------------------
 #p B3LYP/6-31+g** opt out=wfn
 -----------------------------

 ------
 ethyne
 ------
 Symbolic Z-matrix:
 Charge =  0 Multiplicity = 1

 SCF Done:  E(RB3LYP) =  -77.2772024332     A.U. after    7 cycles
 SCF Done:  E(RB3LYP) =  -77.3325057037     A.U. after    8 cycles
 SCF Done:  E(RB3LYP) =  -77.3368719952     A.U. after    7 cycles
 SCF Done:  E(RB3LYP) =  -77.3371369124     A.U. after    7 cycles
 SCF Done:  E(RB3LYP) =  -77.3371377364     A.U. after    6 cycles
 Optimization completed.
    -- Stationary point found.

                         Standard orientation:
 ---------------------------------------------------------------------
 Center     Atomic      Atomic             Coordinates (Angstroms)
 Number     Number       Type             X           Y           Z
 ---------------------------------------------------------------------
      1          6           0        0.000000    0.000000    0.603997
      2          6           0        0.000000    0.000000   -0.603997
      3          1           0        0.000000    0.000000   -1.670501
      4          1           0       -0.000000    0.000000    1.670501
 ---------------------------------------------------------------------

 The electronic state is 1-SGG.
 Alpha  occ. eigenvalues --  -10.20801 -10.20565  -0.75804  -0.57529  -0.50252
 Alpha  occ. eigenvalues --   -0.29708  -0.29708
 Alpha virt. eigenvalues --    0.01292   0.01292   0.02163   0.02338   0.06922
 Alpha virt. eigenvalues --    0.06922   0.07391   0.13822   0.13822   0.15425
 Alpha virt. eigenvalues --    0.18703   0.25420   0.52765   0.65717   0.65717

 Mulliken atomic charges:
              1
     1  C   -0.185627
     2  C   -0.185627
     3  H    0.185627
     4  H    0.185627
 Sum of Mulliken atomic charges =   0.00000

 Dipole moment (field-independent basis, Debye):
    X=             -0.0000    Y=              0.0000    Z=              0.0000  Tot=              0.0000
 Quadrupole moment (field-independent basis, Debye-Ang):
   XX=            -13.8819   YY=            -13.8819   ZZ=             -7.0398
   XY=              0.0000   XZ=             -0.0000   YZ=              0.0000

 Normal termination of Gaussian 09 at Fri Jun 28 11:36:48 2024.
