 Gaussian 09, Revision A.02,
 Gaussian 09:  EM64L-G09RevA.02 11-Jun-2009

 ----------------------------------------------
 #p B3LYP/6-31+g(d,p) opt freq pop=full gfinput
 ----------------------------------------------

 ----
 c2h6
 ----
 Symbolic Z-matrix:
 Charge =  0 Multiplicity = 1

 SCF Done:  E(RB3LYP) =  -79.8396711768     A.U. after    7 cycles
 SCF Done:  E(RB3LYP) =  -79.8415862084     A.U. after    7 cycles
 SCF Done:  E(RB3LYP) =  -79.8416402691     A.U. after    6 cycles
 SCF Done:  E(RB3LYP) =  -79.8416412851     A.U. after    5 cycles
 Optimization completed.
    -- Stationary point found.
 Normal termination of Gaussian 09 at Tue Mar 26 18:38:32 2024.

 ----------------------------------------------------------------------
 #P Geom=AllCheck Guess=TCheck SCRF=Check GenChk RB3LYP/6-31+G(d,p) Fre
 q
 ----------------------------------------------------------------------

 c2h6
 ----
 Redundant internal coordinates taken from checkpoint file:
 tmp.chk
 Charge =  0 Multiplicity = 1

                         Standard orientation:
 ---------------------------------------------------------------------
 Center     Atomic      Atomic             Coordinates (Angstroms)
 Number     Number       Type             X           Y           Z
 ---------------------------------------------------------------------
      1          6           0        0.000000    0.000000    0.766254
      2          6           0       -0.000000   -0.000000   -0.766254
      3          1           0        0.000000    1.020523    1.164770
      4          1           0       -0.000000   -1.020523   -1.164770
      5          1           0        0.883799   -0.510261    1.164770
      6          1           0        0.883799    0.510261   -1.164770
      7          1           0       -0.883799   -0.510261    1.164770
      8          1           0       -0.883799    0.510261   -1.164770
 ---------------------------------------------------------------------

 SCF Done:  E(RB3LYP) =  -79.8416412851     A.U. after    1 cycles

 The electronic state is 1-A1G.
 Alpha  occ. eigenvalues --  -10.17807 -10.17786  -0.75296  -0.61715  -0.43471
 Alpha  occ. eigenvalues --   -0.43471  -0.36845  -0.34454  -0.34454
 Alpha virt. eigenvalues --    0.01749   0.03029   0.05369   0.05369   0.08039
 Alpha virt. eigenvalues --    0.08966   0.08966   0.14268   0.19582   0.19582
 Alpha virt. eigenvalues --    0.19787   0.19787   0.25484   0.29762   0.32688

 Mulliken atomic charges:
              1
     1  C   -0.434349
     2  C   -0.434349
     3  H    0.144783
     4  H    0.144783
     5  H    0.144783
     6  H    0.144783
     7  H    0.144783
     8  H    0.144783
 Sum of Mulliken atomic charges =   0.00000

 Dipole moment (field-independent basis, Debye):
    X=              0.0000    Y=             -0.0000    Z=              0.0000  Tot=              0.0000
 Quadrupole moment (field-independent basis, Debye-Ang):
   XX=            -15.0756   YY=            -15.0756   ZZ=            -15.7647
   XY=             -0.0000   XZ=             -0.0000   YZ=              0.0000

  Exact polarizability:  24.573   0.000  24.573  -0.000  -0.000  27.364
 Approx polarizability:  31.725  -0.000  31.725  -0.000   0.000  31.270

                     1                      2                      3
                    A1U                    EU                     EU
 Frequencies --   308.2331               824.4677               824.4680
 Red. masses --     1.0078                 1.0577                 1.0577
 Frc consts  --     0.0564                 0.4236                 0.4236
 IR Inten    --     0.0000                 4.1395                 4.1383

                     4                      5                      6
                    A1G                    EG                     EG
 Frequencies --   998.5143              1219.1466              1219.1488
 Red. masses --     3.3093                 1.4663                 1.4663
 Frc consts  --     1.9440                 1.2841                 1.2841
 IR Inten    --     0.0000                 0.0000                 0.0000

                     7                      8                      9
                    A2U                    A1G                    EG
 Frequencies --  1408.3605              1429.9567              1507.8732
 Red. masses --     1.1984                 1.2485                 1.0189
 Frc consts  --     1.4005                 1.5042                 1.3649
 IR Inten    --     1.1184                 0.0000                 0.0000

                    10                     11                     12
                    EG                     EU                     EU
 Frequencies --  1507.8738              1509.4987              1509.5007
 Red. masses --     1.0189                 1.0621                 1.0621
 Frc consts  --     1.3649                 1.4258                 1.4258
 IR Inten    --     0.0000                11.6834                11.6859

                    13                     14                     15
                    A2U                    A1G                    EG
 Frequencies --  3036.4703              3037.5116              3090.0859
 Red. masses --     1.0340                 1.0366                 1.1016
 Frc consts  --     5.6172                 5.6350                 6.1977
 IR Inten    --    69.0687                 0.0000                 0.0000

                    16                     17                     18
                    EG                     EU                     EU
 Frequencies --  3090.0860              3113.5824              3113.5842
 Red. masses --     1.1016                 1.1028                 1.1028
 Frc consts  --     6.1977                 6.2990                 6.2990
 IR Inten    --     0.0000                72.6988                72.6917

 - Thermochemistry -
 -------------------
 Temperature   298.150 Kelvin.  Pressure   1.00000 Atm.
 Atom     1 has atomic number  6 and mass  12.00000

 Molecular mass:    30.04695 amu.
 Principal axes and moments of inertia in atomic units:
                           1         2         3
     Eigenvalues --    22.48949  90.86279  90.86279
           X           -0.00000  -0.67572   0.73715
           Y            0.00000   0.73715   0.67572
           Z            1.00000  -0.00000   0.00000
 This molecule is a prolate symmetric top.
 Rotational symmetry number  6.
 Rotational temperatures (Kelvin)      3.85130     0.95324     0.95324
 Rotational constants (GHZ):          80.24821    19.86227    19.86227
 Zero-point vibrational energy     195878.7 (Joules/Mol)
                                   46.81613 (Kcal/Mol)
 Warning -- explicit consideration of   1 degrees of freedom as
           vibrations may cause significant error
 Vibrational temperatures:    443.48  1186.22  1186.22  1436.64  1754.08
          (Kelvin)           1754.08  2026.31  2057.39  2169.49  2169.49
                             2171.83  2171.83  4368.80  4370.30  4445.94
                             4445.94  4479.75  4479.75

 Zero-point correction=                           0.074606 (Hartree/Particle)
 Thermal correction to Energy=                    0.078093
 Thermal correction to Enthalpy=                  0.079037
 Thermal correction to Gibbs Free Energy=         0.053177
 Sum of electronic and zero-point Energies=            -79.767035
 Sum of electronic and thermal Energies=               -79.763548
 Sum of electronic and thermal Enthalpies=             -79.762604
 Sum of electronic and thermal Free Energies=          -79.788465

                     E (Thermal)             CV                S
                      KCal/Mol        Cal/Mol-Kelvin    Cal/Mol-Kelvin
 Total                   49.004             10.096             54.428
 Electronic               0.000              0.000              0.000
 Translational            0.889              2.981             36.134
 Rotational               0.889              2.981             16.296
 Vibrational             47.227              4.135              1.998
 Vibration     1          0.698              1.658              1.372

 Optimization completed.
    -- Stationary point found.
 Normal termination of Gaussian 09 at Tue Mar 26 18:38:38 2024.
