 Gaussian 09, Revision A.02,
 Gaussian 09:  EM64L-G09RevA.02 11-Jun-2009

 ----------------------------------------------
 #p B3LYP/6-31+g(d,p) opt freq pop=full gfinput
 ----------------------------------------------

 ---------
 c2h6_symm
 ---------
 Symbolic Z-matrix:
 Charge =  0 Multiplicity = 1

 SCF Done:  E(RB3LYP) =  -79.8336863995     A.U. after    7 cycles
 SCF Done:  E(RB3LYP) =  -79.8371856058     A.U. after    7 cycles
 SCF Done:  E(RB3LYP) =  -79.8374156888     A.U. after    7 cycles
 SCF Done:  E(RB3LYP) =  -79.8375038312     A.U. after    6 cycles
 SCF Done:  E(RB3LYP) =  -79.8381880212     A.U. after    7 cycles
 SCF Done:  E(RB3LYP) =  -79.8399394688     A.U. after    7 cycles
 SCF Done:  E(RB3LYP) =  -79.8414637145     A.U. after    8 cycles
 SCF Done:  E(RB3LYP) =  -79.8415621935     A.U. after   12 cycles
 SCF Done:  E(RB3LYP) =  -79.8416410347     A.U. after    7 cycles
 SCF Done:  E(RB3LYP) =  -79.8416414204     A.U. after    9 cycles
 Optimization completed.
    -- Stationary point found.
 Normal termination of Gaussian 09 at Sat Mar 23 11:22:15 2024.

 ----------------------------------------------------------------------
 #P Geom=AllCheck Guess=TCheck SCRF=Check GenChk RB3LYP/6-31+G(d,p) Fre
 q
 ----------------------------------------------------------------------

 c2h6_symm
 ---------
 Redundant internal coordinates taken from checkpoint file:
 tmp.chk
 Charge =  0 Multiplicity = 1

                         Standard orientation:
 ---------------------------------------------------------------------
 Center     Atomic      Atomic             Coordinates (Angstroms)
 Number     Number       Type             X           Y           Z
 ---------------------------------------------------------------------
      1          6           0        0.000000    0.000000    0.766046
      2          6           0        0.000000    0.000000   -0.766046
      3          1           0       -0.509745    0.883952    1.164907
      4          1           0        1.020398   -0.000524    1.164907
      5          1           0       -0.510652   -0.883428    1.164907
      6          1           0        0.510652   -0.883428   -1.164907
      7          1           0       -1.020398   -0.000524   -1.164907
      8          1           0        0.509745    0.883952   -1.164907
 ---------------------------------------------------------------------

 SCF Done:  E(RB3LYP) =  -79.8416414200     A.U. after    1 cycles

 The electronic state is 1-A1.
 Alpha  occ. eigenvalues --  -10.17805 -10.17784  -0.75303  -0.61717  -0.43470
 Alpha  occ. eigenvalues --   -0.43470  -0.36860  -0.34448  -0.34448
 Alpha virt. eigenvalues --    0.01749   0.03028   0.05369   0.05369   0.08040
 Alpha virt. eigenvalues --    0.08966   0.08966   0.14269   0.19587   0.19587
 Alpha virt. eigenvalues --    0.19781   0.19781   0.25503   0.29765   0.32689

 Mulliken atomic charges:
              1
     1  C   -0.434322
     2  C   -0.434322
     3  H    0.144774
     4  H    0.144774
     5  H    0.144774
     6  H    0.144774
     7  H    0.144774
     8  H    0.144774
 Sum of Mulliken atomic charges =   0.00000

 Dipole moment (field-independent basis, Debye):
    X=             -0.0000    Y=              0.0000    Z=              0.0000  Tot=              0.0000
 Quadrupole moment (field-independent basis, Debye-Ang):
   XX=            -15.0765   YY=            -15.0765   ZZ=            -15.7615
   XY=             -0.0000   XZ=              0.0000   YZ=              0.0000

  Exact polarizability:  24.571  -0.000  24.572  -0.000  -0.000  27.360
 Approx polarizability:  31.722  -0.000  31.722   0.000   0.000  31.267

                     1                      2                      3
                    A1                      E                      E
 Frequencies --   307.9291               824.5162               824.5165
 Red. masses --     1.0078                 1.0577                 1.0577
 Frc consts  --     0.0563                 0.4237                 0.4237
 IR Inten    --     0.0000                 4.1585                 4.1573

                     4                      5                      6
                    A1                      E                      E
 Frequencies --   999.4435              1219.1757              1219.1779
 Red. masses --     3.3017                 1.4667                 1.4667
 Frc consts  --     1.9431                 1.2845                 1.2845
 IR Inten    --     0.0000                 0.0000                 0.0000

                     7                      8                      9
                    A2                     A1                      E
 Frequencies --  1408.6661              1430.4324              1507.9283
 Red. masses --     1.1983                 1.2495                 1.0189
 Frc consts  --     1.4010                 1.5064                 1.3650
 IR Inten    --     1.1117                 0.0000                 0.0030

                    10                     11                     12
                     E                      E                      E
 Frequencies --  1507.9289              1509.5642              1509.5662
 Red. masses --     1.0189                 1.0620                 1.0620
 Frc consts  --     1.3650                 1.4259                 1.4259
 IR Inten    --     0.0030                11.6884                11.6908

                    13                     14                     15
                    A2                     A1                      E
 Frequencies --  3036.4700              3037.5209              3089.8729
 Red. masses --     1.0341                 1.0367                 1.1016
 Frc consts  --     5.6174                 5.6354                 6.1968
 IR Inten    --    69.1371                 0.0000                 0.0000

                    16                     17                     18
                     E                      E                      E
 Frequencies --  3089.8731              3113.3929              3113.3947
 Red. masses --     1.1016                 1.1028                 1.1028
 Frc consts  --     6.1968                 6.2981                 6.2981
 IR Inten    --     0.0000                72.7808                72.7738

 - Thermochemistry -
 -------------------
 Temperature   298.150 Kelvin.  Pressure   1.00000 Atm.
 Atom     1 has atomic number  6 and mass  12.00000

 Molecular mass:    30.04695 amu.
 Principal axes and moments of inertia in atomic units:
                           1         2         3
     Eigenvalues --    22.48398  90.83960  90.83960
           X            0.00000   0.99228   0.12403
           Y            0.00000  -0.12403   0.99228
           Z            1.00000   0.00000  -0.00000
 This molecule is a prolate symmetric top.
 Rotational symmetry number  6.
 Rotational temperatures (Kelvin)      3.85225     0.95348     0.95348
 Rotational constants (GHZ):          80.26788    19.86734    19.86734
 Zero-point vibrational energy     195884.7 (Joules/Mol)
                                   46.81757 (Kcal/Mol)
 Warning -- explicit consideration of   1 degrees of freedom as
           vibrations may cause significant error
 Vibrational temperatures:    443.04  1186.29  1186.29  1437.97  1754.12
          (Kelvin)           1754.12  2026.75  2058.07  2169.57  2169.57
                             2171.92  2171.93  4368.80  4370.31  4445.63
                             4445.63  4479.47  4479.47

 Zero-point correction=                           0.074609 (Hartree/Particle)
 Thermal correction to Energy=                    0.078095
 Thermal correction to Enthalpy=                  0.079040
 Thermal correction to Gibbs Free Energy=         0.053179
 Sum of electronic and zero-point Energies=            -79.767033
 Sum of electronic and thermal Energies=               -79.763546
 Sum of electronic and thermal Enthalpies=             -79.762602
 Sum of electronic and thermal Free Energies=          -79.788463

                     E (Thermal)             CV                S
                      KCal/Mol        Cal/Mol-Kelvin    Cal/Mol-Kelvin
 Total                   49.006             10.095             54.428
 Electronic               0.000              0.000              0.000
 Translational            0.889              2.981             36.134
 Rotational               0.889              2.981             16.296
 Vibrational             47.228              4.134              1.999
 Vibration     1          0.698              1.659              1.373

 Optimization completed.
    -- Stationary point found.
 Normal termination of Gaussian 09 at Sat Mar 23 11:22:21 2024.
