 Gaussian 09, Revision A.02,
 Gaussian 09:  EM64L-G09RevA.02 11-Jun-2009

 ----------------------------------------------
 #p B3LYP/6-31+g(d,p) opt freq pop=full gfinput
 ----------------------------------------------

 ---------
 c2h6_symm
 ---------
 Symbolic Z-matrix:
 Charge =  0 Multiplicity = 1

 SCF Done:  E(RB3LYP) =  -79.8335813033     A.U. after    7 cycles
 SCF Done:  E(RB3LYP) =  -79.8370848873     A.U. after    7 cycles
 SCF Done:  E(RB3LYP) =  -79.8372876501     A.U. after    6 cycles
 SCF Done:  E(RB3LYP) =  -79.8372894633     A.U. after    5 cycles
 Optimization completed.
    -- Stationary point found.
 Normal termination of Gaussian 09 at Sat Mar 23 10:56:14 2024.

 ----------------------------------------------------------------------
 #P Geom=AllCheck Guess=TCheck SCRF=Check GenChk RB3LYP/6-31+G(d,p) Fre
 q
 ----------------------------------------------------------------------

 c2h6_symm
 ---------
 Redundant internal coordinates taken from checkpoint file:
 tmp.chk
 Charge =  0 Multiplicity = 1

                         Standard orientation:
 ---------------------------------------------------------------------
 Center     Atomic      Atomic             Coordinates (Angstroms)
 Number     Number       Type             X           Y           Z
 ---------------------------------------------------------------------
      1          6           0        0.000000    0.000000    0.773282
      2          6           0        0.000000    0.000000   -0.773282
      3          1           0        0.000000    1.016392    1.179488
      4          1           0        0.880221   -0.508196    1.179488
      5          1           0       -0.880221   -0.508196    1.179488
      6          1           0        0.880221   -0.508196   -1.179488
      7          1           0       -0.880221   -0.508196   -1.179488
      8          1           0        0.000000    1.016392   -1.179488
 ---------------------------------------------------------------------

 SCF Done:  E(RB3LYP) =  -79.8372894633     A.U. after    1 cycles

 The electronic state is 1-A1'.
 Alpha  occ. eigenvalues --  -10.17786 -10.17768  -0.74994  -0.61896  -0.43346
 Alpha  occ. eigenvalues --   -0.43346  -0.36828  -0.34288  -0.34288
 Alpha virt. eigenvalues --    0.01795   0.02962   0.05450   0.05450   0.08099
 Alpha virt. eigenvalues --    0.09023   0.09023   0.14204   0.15183   0.15183
 Alpha virt. eigenvalues --    0.25128   0.26620   0.26620   0.28702   0.34524

 Mulliken atomic charges:
              1
     1  C   -0.443460
     2  C   -0.443460
     3  H    0.147820
     4  H    0.147820
     5  H    0.147820
     6  H    0.147820
     7  H    0.147820
     8  H    0.147820
 Sum of Mulliken atomic charges =  -0.00000

 Dipole moment (field-independent basis, Debye):
    X=              0.0000    Y=             -0.0000    Z=              0.0000  Tot=              0.0000
 Quadrupole moment (field-independent basis, Debye-Ang):
   XX=            -15.0674   YY=            -15.0674   ZZ=            -15.7449
   XY=             -0.0000   XZ=              0.0000   YZ=             -0.0000

  Exact polarizability:  24.242  -0.000  24.242   0.000   0.000  26.772
 Approx polarizability:  31.143  -0.000  31.143   0.000  -0.000  30.174

 ******    1 imaginary frequencies (negative Signs) ******

                     1                      2                      3
                    A1"                    E'                     E'
 Frequencies --  -299.1709               899.3088               899.3100
 Red. masses --     1.0078                 1.0595                 1.0595
 Frc consts  --     0.0531                 0.5049                 0.5049
 IR Inten    --     0.0000                 3.7814                 3.7805

                     4                      5                      6
                    A1'                    E"                     E"
 Frequencies --   993.8302              1171.0086              1171.0105
 Red. masses --     3.9367                 1.4630                 1.4630
 Frc consts  --     2.2909                 1.1820                 1.1820
 IR Inten    --     0.0000                 0.0000                 0.0000

                     7                      8                      9
                    A2"                    A1'                    E"
 Frequencies --  1407.1524              1448.4164              1505.7770
 Red. masses --     1.1975                 1.1760                 1.0190
 Frc consts  --     1.3970                 1.4536                 1.3613
 IR Inten    --     1.0026                 0.0000                 0.0000

                    10                     11                     12
                    E"                     E'                     E'
 Frequencies --  1505.7774              1515.6374              1515.6374
 Red. masses --     1.0190                 1.0612                 1.0612
 Frc consts  --     1.3613                 1.4363                 1.4363
 IR Inten    --     0.0000                14.0874                14.0862

                    13                     14                     15
                    A2"                    A1'                    E"
 Frequencies --  3043.6326              3051.8111              3098.7616
 Red. masses --     1.0347                 1.0380                 1.1027
 Frc consts  --     5.6475                 5.6957                 6.2388
 IR Inten    --    74.0454                 0.0000                 0.0000

                    16                     17                     18
                    E"                     E'                     E'
 Frequencies --  3098.7624              3120.3020              3120.3022
 Red. masses --     1.1027                 1.1017                 1.1017
 Frc consts  --     6.2388                 6.3200                 6.3200
 IR Inten    --     0.0000                61.0781                61.0708

 - Thermochemistry -
 -------------------
 Temperature   298.150 Kelvin.  Pressure   1.00000 Atm.
 Atom     1 has atomic number  6 and mass  12.00000

 Molecular mass:    30.04695 amu.
 Principal axes and moments of inertia in atomic units:
                           1         2         3
     Eigenvalues --    22.30778  92.44432  92.44432
           X            0.00000   0.16453   0.98637
           Y            0.00000   0.98637  -0.16453
           Z            1.00000  -0.00000   0.00000
 This molecule is a prolate symmetric top.
 Rotational symmetry number  6.
 Rotational temperatures (Kelvin)      3.88267     0.93693     0.93693
 Rotational constants (GHZ):          80.90186    19.52247    19.52247
    1 imaginary frequencies ignored.
 Zero-point vibrational energy     194790.6 (Joules/Mol)
                                   46.55606 (Kcal/Mol)
 Vibrational temperatures:   1293.90  1293.90  1429.90  1684.82  1684.82
          (Kelvin)           2024.58  2083.95  2166.47  2166.48  2180.66
                             2180.66  4379.10  4390.87  4458.42  4458.42
                             4489.41  4489.41

 Zero-point correction=                           0.074192 (Hartree/Particle)
 Thermal correction to Energy=                    0.077240
 Thermal correction to Enthalpy=                  0.078184
 Thermal correction to Gibbs Free Energy=         0.053001
 Sum of electronic and zero-point Energies=            -79.763098
 Sum of electronic and thermal Energies=               -79.760049
 Sum of electronic and thermal Enthalpies=             -79.759105
 Sum of electronic and thermal Free Energies=          -79.784289

                     E (Thermal)             CV                S
                      KCal/Mol        Cal/Mol-Kelvin    Cal/Mol-Kelvin
 Total                   48.469              8.279             53.003
 Electronic               0.000              0.000              0.000
 Translational            0.889              2.981             36.134
 Rotational               0.889              2.981             16.323
 Vibrational             46.691              2.318              0.546

 Optimization completed.
    -- Stationary point found.
 Normal termination of Gaussian 09 at Sat Mar 23 10:56:19 2024.
