 Gaussian 09, Revision A.02,
 Gaussian 09:  EM64L-G09RevA.02 11-Jun-2009

 ----------------------------------------------
 #p B3LYP/6-31+g(d,p) opt freq pop=full gfinput
 ----------------------------------------------

 ----
 c3h8
 ----
 Symbolic Z-matrix:
 Charge =  0 Multiplicity = 1

 SCF Done:  E(RB3LYP) =  -119.158591522     A.U. after    9 cycles
 SCF Done:  E(RB3LYP) =  -119.159149715     A.U. after    8 cycles
 SCF Done:  E(RB3LYP) =  -119.159151761     A.U. after    6 cycles
 Optimization completed.
    -- Stationary point found.
 Normal termination of Gaussian 09 at Sat Mar 23 11:50:48 2024.

 ----------------------------------------------------------------------
 #P Geom=AllCheck Guess=TCheck SCRF=Check GenChk RB3LYP/6-31+G(d,p) Fre
 q
 ----------------------------------------------------------------------

 c3h8
 ----
 Redundant internal coordinates taken from checkpoint file:
 tmp.chk
 Charge =  0 Multiplicity = 1

                         Standard orientation:
 ---------------------------------------------------------------------
 Center     Atomic      Atomic             Coordinates (Angstroms)
 Number     Number       Type             X           Y           Z
 ---------------------------------------------------------------------
      1          6           0        0.000000   -0.000000    0.586786
      2          6           0        0.000000    1.278201   -0.260078
      3          6           0       -0.000000   -1.278201   -0.260078
      4          1           0        0.877677   -0.000000    1.246571
      5          1           0       -0.877677    0.000000    1.246571
      6          1           0        0.000000    2.176367    0.367409
      7          1           0       -0.000000   -2.176367    0.367409
      8          1           0        0.884505    1.323033   -0.906933
      9          1           0       -0.884505    1.323033   -0.906933
     10          1           0       -0.884505   -1.323033   -0.906933
     11          1           0        0.884505   -1.323033   -0.906933
 ---------------------------------------------------------------------

 SCF Done:  E(RB3LYP) =  -119.159151761     A.U. after    1 cycles

 The electronic state is 1-A1.
 Alpha  occ. eigenvalues --  -10.18442 -10.17579 -10.17578  -0.77986  -0.68122
 Alpha  occ. eigenvalues --   -0.58539  -0.45645  -0.43607  -0.39840  -0.38135
 Alpha  occ. eigenvalues --   -0.33884  -0.33767  -0.32891
 Alpha virt. eigenvalues --    0.01505   0.03021   0.03497   0.04557   0.06970
 Alpha virt. eigenvalues --    0.07713   0.08257   0.08563   0.09307   0.11344
 Alpha virt. eigenvalues --    0.12337   0.14921   0.19612   0.20079   0.20176

 Mulliken atomic charges:
              1
     1  C   -0.154360
     2  C   -0.488311
     3  C   -0.488311
     4  H    0.137870
     5  H    0.137870
     6  H    0.142910
     7  H    0.142910
     8  H    0.142356
     9  H    0.142356
    10  H    0.142356
    11  H    0.142356
 Sum of Mulliken atomic charges =  -0.00000

 Dipole moment (field-independent basis, Debye):
    X=              0.0000    Y=              0.0000    Z=              0.0866  Tot=              0.0866
 Quadrupole moment (field-independent basis, Debye-Ang):
   XX=            -21.7135   YY=            -22.5580   ZZ=            -22.2061
   XY=             -0.0000   XZ=             -0.0000   YZ=              0.0000

  Exact polarizability:  34.872  -0.000  40.918  -0.000   0.000  36.963
 Approx polarizability:  47.521  -0.000  47.332   0.000   0.000  48.150

                     1                      2                      3
                    A2                     B1                     A1
 Frequencies --   218.1044               269.6152               365.9419
 Red. masses --     1.0278                 1.1365                 2.0539
 Frc consts  --     0.0288                 0.0487                 0.1621
 IR Inten    --     0.0000                 0.0000                 0.0410

                     4                      5                      6
                    B1                     A1                     A2
 Frequencies --   753.4277               871.7544               911.9295
 Red. masses --     1.0792                 2.5772                 1.1003
 Frc consts  --     0.3609                 1.1540                 0.5391
 IR Inten    --     3.0435                 0.7706                 0.0000

                     7                      8                      9
                    B2                     B2                     A1
 Frequencies --   931.2268              1058.4809              1175.6983
 Red. masses --     1.2001                 2.4482                 1.7829
 Frc consts  --     0.6132                 1.6161                 1.4520
 IR Inten    --     1.6752                 0.9144                 1.1006

                    10                     11                     12
                    B1                     A2                     B2
 Frequencies --  1213.9664              1315.2614              1367.5497
 Red. masses --     1.6644                 1.1248                 1.3982
 Frc consts  --     1.4452                 1.1465                 1.5407
 IR Inten    --     0.1166                 0.0000                 3.5660

                    13                     14                     15
                    B2                     A1                     A2
 Frequencies --  1410.1514              1425.7896              1494.3196
 Red. masses --     1.2835                 1.2321                 1.0382
 Frc consts  --     1.5037                 1.4757                 1.3659
 IR Inten    --     5.5281                 2.9782                 0.0000

                    16                     17                     18
                    A1                     B2                     B1
 Frequencies --  1496.7793              1501.5910              1511.8688
 Red. masses --     1.0455                 1.0521                 1.0408
 Frc consts  --     1.3800                 1.3977                 1.4017
 IR Inten    --     0.0891                 2.7055                16.0491

                    19                     20                     21
                    A1                     A1                     B2
 Frequencies --  1516.9161              3026.2126              3026.2789
 Red. masses --     1.0809                 1.0606                 1.0352
 Frc consts  --     1.4654                 5.7224                 5.5859
 IR Inten    --     6.1407                34.8695                44.0250

                    22                     23                     24
                    A1                     B1                     A2
 Frequencies --  3030.0647              3051.8650              3089.4702
 Red. masses --     1.0357                 1.1021                 1.1024
 Frc consts  --     5.6028                 6.0481                 6.1992
 IR Inten    --    21.7239                 5.5743                 0.0000

                    25                     26                     27
                    B2                     B1                     A1
 Frequencies --  3098.6836              3099.7937              3100.7243
 Red. masses --     1.1022                 1.1030                 1.1006
 Frc consts  --     6.2351                 6.2443                 6.2348
 IR Inten    --    31.6863               107.7695                58.2952

 - Thermochemistry -
 -------------------
 Temperature   298.150 Kelvin.  Pressure   1.00000 Atm.
 Atom     1 has atomic number  6 and mass  12.00000

 Molecular mass:    44.06260 amu.
 Principal axes and moments of inertia in atomic units:
                           1         2         3
     Eigenvalues --    61.34497 216.12592 243.85592
           X            0.00000   0.00000   1.00000
           Y            1.00000   0.00000  -0.00000
           Z            0.00000   1.00000   0.00000
 This molecule is an asymmetric top.
 Rotational symmetry number  2.
 Rotational temperatures (Kelvin)      1.41191     0.40076     0.35518
 Rotational constants (GHZ):          29.41955     8.35042     7.40085
 Zero-point vibrational energy     271154.3 (Joules/Mol)
                                   64.80744 (Kcal/Mol)
 Warning -- explicit consideration of   3 degrees of freedom as
           vibrations may cause significant error
 Vibrational temperatures:    313.80   387.92   526.51  1084.01  1254.26
          (Kelvin)           1312.06  1339.83  1522.92  1691.57  1746.62
                             1892.37  1967.60  2028.89  2051.39  2149.99
                             2153.53  2160.45  2175.24  2182.50  4354.04
                             4354.13  4359.58  4390.95  4445.05  4458.31
                             4459.91  4461.25

 Zero-point correction=                           0.103277 (Hartree/Particle)
 Thermal correction to Energy=                    0.107819
 Thermal correction to Enthalpy=                  0.108764
 Thermal correction to Gibbs Free Energy=         0.078250
 Sum of electronic and zero-point Energies=           -119.055875
 Sum of electronic and thermal Energies=              -119.051332
 Sum of electronic and thermal Enthalpies=            -119.050388
 Sum of electronic and thermal Free Energies=         -119.080902

                     E (Thermal)             CV                S
                      KCal/Mol        Cal/Mol-Kelvin    Cal/Mol-Kelvin
 Total                   67.658             14.823             64.221
 Electronic               0.000              0.000              0.000
 Translational            0.889              2.981             37.275
 Rotational               0.889              2.981             21.319
 Vibrational             65.880              8.861              5.628
 Vibration     1          0.646              1.813              1.975
 Vibration     2          0.674              1.729              1.599
 Vibration     3          0.739              1.542              1.097

 Optimization completed.
    -- Stationary point found.
 Normal termination of Gaussian 09 at Sat Mar 23 11:51:09 2024.
