 Gaussian 09, Revision A.02,
 Gaussian 09:  EM64L-G09RevA.02 11-Jun-2009

 ----------------------------
 #p B3LYP/6-31g** opt out=wfn
 ----------------------------

 -----------------
 hydrogen molecule
 -----------------
 Symbolic Z-matrix:
 Charge =  0 Multiplicity = 1

 SCF Done:  E(RB3LYP) =  -1.14965384335     A.U. after    5 cycles
 SCF Done:  E(RB3LYP) =  -1.17233983054     A.U. after    7 cycles
 SCF Done:  E(RB3LYP) =  -1.17848407028     A.U. after    7 cycles
 SCF Done:  E(RB3LYP) =  -1.17853932643     A.U. after    4 cycles
 Optimization completed.
    -- Stationary point found.

                         Standard orientation:
 ---------------------------------------------------------------------
 Center     Atomic      Atomic             Coordinates (Angstroms)
 Number     Number       Type             X           Y           Z
 ---------------------------------------------------------------------
      1          1           0        0.000000    0.000000    0.371456
      2          1           0        0.000000    0.000000   -0.371456
 ---------------------------------------------------------------------

 The electronic state is 1-SGG.
 Alpha  occ. eigenvalues --   -0.43155
 Alpha virt. eigenvalues --    0.10093   0.57705   1.03599   1.67472   1.67472
 Alpha virt. eigenvalues --    2.37865   2.61553   2.61553   4.15228

 Mulliken atomic charges:
              1
     1  H    0.000000
     2  H    0.000000
 Sum of Mulliken atomic charges =   0.00000

 Dipole moment (field-independent basis, Debye):
    X=              0.0000    Y=              0.0000    Z=              0.0000  Tot=              0.0000
 Quadrupole moment (field-independent basis, Debye-Ang):
   XX=             -2.0292   YY=             -2.0292   ZZ=             -1.5076
   XY=             -0.0000   XZ=             -0.0000   YZ=              0.0000

 Normal termination of Gaussian 09 at Fri Jun 28 09:26:07 2024.
