 Gaussian 09, Revision A.02,
 Gaussian 09:  EM64L-G09RevA.02 11-Jun-2009

 --------------------------------
 #p B3LYP/6-31+g(d,p) opt out=wfn
 --------------------------------

 -----
 etano
 -----
 Symbolic Z-matrix:
 Charge =  0 Multiplicity = 1

 SCF Done:  E(RB3LYP) =  -79.8266074533     A.U. after    8 cycles
 SCF Done:  E(RB3LYP) =  -79.8414134822     A.U. after    7 cycles
 SCF Done:  E(RB3LYP) =  -79.8416048829     A.U. after    7 cycles
 SCF Done:  E(RB3LYP) =  -79.8416409097     A.U. after    6 cycles
 SCF Done:  E(RB3LYP) =  -79.8416414022     A.U. after    5 cycles
 Optimization completed.
    -- Stationary point found.

                         Standard orientation:
 ---------------------------------------------------------------------
 Center     Atomic      Atomic             Coordinates (Angstroms)
 Number     Number       Type             X           Y           Z
 ---------------------------------------------------------------------
      1          6           0        0.000000    0.000000    0.765976
      2          6           0       -0.000000   -0.000000   -0.765976
      3          1           0        0.000000    1.020443    1.164798
      4          1           0       -0.883730   -0.510222    1.164798
      5          1           0        0.883730   -0.510222    1.164798
      6          1           0        0.883730    0.510222   -1.164798
      7          1           0       -0.000000   -1.020443   -1.164798
      8          1           0       -0.883730    0.510222   -1.164798
 ---------------------------------------------------------------------

 The electronic state is 1-A1G.
 Alpha  occ. eigenvalues --  -10.17805 -10.17784  -0.75305  -0.61714  -0.43472
 Alpha  occ. eigenvalues --   -0.43472  -0.36861  -0.34447  -0.34447
 Alpha virt. eigenvalues --    0.01748   0.03029   0.05368   0.05368   0.08039
 Alpha virt. eigenvalues --    0.08966   0.08966   0.14269   0.19586   0.19586
 Alpha virt. eigenvalues --    0.19781   0.19781   0.25508   0.29763   0.32689

 Mulliken atomic charges:
              1
     1  C   -0.434304
     2  C   -0.434304
     3  H    0.144768
     4  H    0.144768
     5  H    0.144768
     6  H    0.144768
     7  H    0.144768
     8  H    0.144768
 Sum of Mulliken atomic charges =  -0.00000

 Dipole moment (field-independent basis, Debye):
    X=              0.0000    Y=              0.0000    Z=              0.0000  Tot=              0.0000
 Quadrupole moment (field-independent basis, Debye-Ang):
   XX=            -15.0764   YY=            -15.0764   ZZ=            -15.7627
   XY=             -0.0000   XZ=              0.0000   YZ=              0.0000

 Normal termination of Gaussian 09 at Fri Jun 28 11:32:28 2024.
