 Gaussian 09, Revision A.02,
 Gaussian 09:  EM64L-G09RevA.02 11-Jun-2009

 -----------------------------
 #p B3LYP/6-31+g** opt out=wfn
 -----------------------------

 -----------------
 hydrogen fluoride
 -----------------
 Symbolic Z-matrix:
 Charge =  0 Multiplicity = 1

 SCF Done:  E(RB3LYP) =  -100.445671012     A.U. after    9 cycles
 SCF Done:  E(RB3LYP) =  -100.451355657     A.U. after    8 cycles
 SCF Done:  E(RB3LYP) =  -100.451369759     A.U. after    6 cycles
 Optimization completed.
    -- Stationary point found.

                         Standard orientation:
 ---------------------------------------------------------------------
 Center     Atomic      Atomic             Coordinates (Angstroms)
 Number     Number       Type             X           Y           Z
 ---------------------------------------------------------------------
      1          1           0        0.000000    0.000000   -0.835017
      2          9           0        0.000000    0.000000    0.092780
 ---------------------------------------------------------------------

 The electronic state is 1-SG.
 Alpha  occ. eigenvalues --  -24.71680  -1.21106  -0.55786  -0.42232  -0.42232
 Alpha virt. eigenvalues --    0.04094   0.18994   0.20092   0.20092   0.25033
 Alpha virt. eigenvalues --    0.90552   1.43226   1.43226   1.47679   1.60564
 Alpha virt. eigenvalues --    1.60564   1.60827   1.83590   1.83590   2.52808

 Mulliken atomic charges:
              1
     1  H    0.400439
     2  F   -0.400439
 Sum of Mulliken atomic charges =  -0.00000

 Dipole moment (field-independent basis, Debye):
    X=              0.0000    Y=              0.0000    Z=             -1.9947  Tot=              1.9947
 Quadrupole moment (field-independent basis, Debye-Ang):
   XX=             -5.9260   YY=             -5.9260   ZZ=             -3.7314
   XY=              0.0000   XZ=              0.0000   YZ=              0.0000

 Normal termination of Gaussian 09 at Fri May 24 11:29:15 2024.
