 Gaussian 09, Revision D.01,
 Gaussian 09:  EM64L-G09RevD.01 24-Apr-2013

 ------------------------------------------------------
 #p B3LYP/6-31+g(d,p) opt(internal) nosym freq NMR=GIAO
 ------------------------------------------------------

 ----------------
 Acetone molecule
 ----------------
 Symbolic Z-matrix:
 Charge =  0 Multiplicity = 1

 SCF Done:  E(RB3LYP) =  -193.082640292     A.U. after   13 cycles
 SCF Done:  E(RB3LYP) =  -193.125996615     A.U. after   11 cycles
 SCF Done:  E(RB3LYP) =  -193.165996063     A.U. after   12 cycles
 SCF Done:  E(RB3LYP) =  -193.169711000     A.U. after   10 cycles
 SCF Done:  E(RB3LYP) =  -193.169865719     A.U. after   10 cycles
 SCF Done:  E(RB3LYP) =  -193.172405679     A.U. after   10 cycles
 SCF Done:  E(RB3LYP) =  -193.172640234     A.U. after   10 cycles
 SCF Done:  E(RB3LYP) =  -193.172992369     A.U. after   10 cycles
 SCF Done:  E(RB3LYP) =  -193.174172829     A.U. after   11 cycles
 SCF Done:  E(RB3LYP) =  -193.174467833     A.U. after    9 cycles
 SCF Done:  E(RB3LYP) =  -193.174494811     A.U. after    9 cycles
 SCF Done:  E(RB3LYP) =  -193.174503098     A.U. after    9 cycles
 SCF Done:  E(RB3LYP) =  -193.174504550     A.U. after    8 cycles
 SCF Done:  E(RB3LYP) =  -193.174504920     A.U. after    7 cycles
 Optimization completed.
    -- Stationary point found.
 Normal termination of Gaussian 09 at Mon May 13 15:46:56 2024.

 ----------------------------------------------------------------------
 #P Geom=AllCheck Guess=TCheck SCRF=Check GenChk RB3LYP/6-31+G(d,p) Fre
 q
 ----------------------------------------------------------------------

 Structure from the checkpoint file:  "tmp.chk"
 ----------------
 Acetone molecule
 ----------------
 Charge =  0 Multiplicity = 1

                          Input orientation:
 ---------------------------------------------------------------------
 Center     Atomic      Atomic             Coordinates (Angstroms)
 Number     Number       Type             X           Y           Z
 ---------------------------------------------------------------------
      1          6           0        0.000000    0.000000    0.000000
      2          8           0        0.000000    0.000000    1.219125
      3          6           0        1.293522    0.000000   -0.795307
      4          6           0       -1.293546   -0.000858   -0.795280
      5          1           0       -1.342890    0.884279   -1.440795
      6          1           0       -1.335242   -0.876952   -1.453450
      7          1           0       -2.148788   -0.008842   -0.117852
      8          1           0        1.337133    0.877826   -1.451054
      9          1           0        2.148805    0.004624   -0.117900
     10          1           0        1.340869   -0.883440   -1.443280
 ---------------------------------------------------------------------

 SCF Done:  E(RB3LYP) =  -193.174504920     A.U. after    1 cycles

      1  C    Isotropic =    -6.7246   Anisotropy =   175.4503

      2  O    Isotropic =  -293.0191   Anisotropy =   911.8628

      3  C    Isotropic =   163.1261   Anisotropy =    53.0164

      4  C    Isotropic =   163.1261   Anisotropy =    53.0165

      5  H    Isotropic =    29.4945   Anisotropy =     4.3583

      6  H    Isotropic =    29.4890   Anisotropy =     4.3245

      7  H    Isotropic =    29.8147   Anisotropy =     6.5183

      8  H    Isotropic =    29.4894   Anisotropy =     4.3305

      9  H    Isotropic =    29.8147   Anisotropy =     6.5185

     10  H    Isotropic =    29.4940   Anisotropy =     4.3521

 Alpha  occ. eigenvalues --  -19.15244 -10.28977 -10.19968 -10.19966  -1.04895
 Alpha  occ. eigenvalues --   -0.77705  -0.71866  -0.54050  -0.46716  -0.46671
 Alpha  occ. eigenvalues --   -0.45787  -0.41108  -0.40295  -0.38687  -0.35818
 Alpha  occ. eigenvalues --   -0.25806
 Alpha virt. eigenvalues --   -0.02740  -0.00017   0.02702   0.04525   0.04771
 Alpha virt. eigenvalues --    0.05349   0.06984   0.07728   0.09219   0.10217
 Alpha virt. eigenvalues --    0.10453   0.11664   0.14104   0.17256   0.19890

 Mulliken charges:
               1
     1  C    0.408244
     2  O   -0.422933
     3  C   -0.501958
     4  C   -0.501960
     5  H    0.163550
     6  H    0.163043
     7  H    0.182709
     8  H    0.163164
     9  H    0.182708
    10  H    0.163432
 Sum of Mulliken charges =  -0.00000

 Dipole moment (field-independent basis, Debye):
    X=             -0.0000    Y=              0.0002    Z=             -3.1959  Tot=              3.1959
 Quadrupole moment (field-independent basis, Debye-Ang):
   XX=            -23.9307   YY=            -24.4988   ZZ=            -28.3754
   XY=             -0.0030   XZ=             -0.0001   YZ=             -0.0008

  Exact polarizability:  42.180  -0.005  31.212  -0.000  -0.001  45.642
 Approx polarizability:  49.002  -0.014  43.194   0.000  -0.004  67.748

 ******    1 imaginary frequencies (negative Signs) ******

                      1                      2                      3
                      A                      A                      A
 Frequencies --    -39.2156               123.1556               378.9596
 Red. masses --      1.0173                 1.1271                 2.1918
 Frc consts  --      0.0009                 0.0101                 0.1855
 IR Inten    --  0.4715E-04             0.5032E-02              1.494

                      4                      5                      6
                      A                      A                      A
 Frequencies --    488.3056               532.6169               786.3252
 Red. masses --      2.0025                 3.6053                 3.6338
 Frc consts  --      0.2813                 0.6026                 1.3238
 IR Inten    --  0.5290                  13.83                  1.407

                      7                      8                      9
                      A                      A                      A
 Frequencies --    886.2180               888.8480              1083.0200
 Red. masses --      1.2102                 1.5490                 1.5540
 Frc consts  --      0.5600                 0.7210                 1.0739
 IR Inten    --  0.3361E-01              6.826                 0.2559E-03

                     10                     11                     12
                      A                      A                      A
 Frequencies --   1118.4639              1236.8922              1391.4782
 Red. masses --      1.9598                 2.7688                 1.2286
 Frc consts  --      1.4445                 2.4958                 1.4016
 IR Inten    --   2.543                  74.16                  20.61

                     13                     14                     15
                      A                      A                      A
 Frequencies --   1393.6021              1463.6404              1470.2057
 Red. masses --      1.4285                 1.0421                 1.0523
 Frc consts  --      1.6346                 1.3153                 1.3402
 IR Inten    --   60.43                 0.9155                 0.6085E-01

                     16                     17                     18
                      A                      A                      A
 Frequencies --   1473.8623              1492.0869              1791.3114
 Red. masses --      1.0651                 1.0446                 9.7311
 Frc consts  --      1.3632                 1.3703                18.3974
 IR Inten    --   31.18                  24.92                  200.1

                     19                     20                     21
                      A                      A                      A
 Frequencies --   3036.3108              3043.4195              3096.1781
 Red. masses --      1.0376                 1.0376                 1.0992
 Frc consts  --      5.6361                 5.6622                 6.2083
 IR Inten    --   2.158                  8.112                 0.2524E-02

                     22                     23                     24
                      A                      A                      A
 Frequencies --   3103.3391              3158.8986              3159.6255
 Red. masses --      1.0994                 1.1020                 1.1024
 Frc consts  --      6.2383                 6.4789                 6.4842
 IR Inten    --   19.35                  11.10                  6.604

 - Thermochemistry -
 -------------------
 Temperature   298.150 Kelvin.  Pressure   1.00000 Atm.
 Atom     1 has atomic number  6 and mass  12.00000

 Molecular mass:    58.04186 amu.
 Principal axes and moments of inertia in atomic units:
                           1         2         3
     Eigenvalues --   178.54535 213.61781 369.83390
           X            1.00000   0.00003  -0.00028
           Y            0.00028   0.00021   1.00000
           Z           -0.00003   1.00000  -0.00021
 This molecule is an asymmetric top.
 Rotational symmetry number  1.
 Rotational temperatures (Kelvin)      0.48511     0.40546     0.23420
 Rotational constants (GHZ):          10.10803     8.44846     4.87987
    1 imaginary frequencies ignored.
 Zero-point vibrational energy     218897.3 (Joules/Mol)
                                   52.31770 (Kcal/Mol)
 Warning -- explicit consideration of   4 degrees of freedom as
           vibrations may cause significant error
 Vibrational temperatures:    177.19   545.24   702.56   766.32  1131.35
          (Kelvin)           1275.07  1278.85  1558.22  1609.22  1779.61
                             2002.02  2005.08  2105.85  2115.30  2120.56
                             2146.78  2577.29  4368.57  4378.80  4454.70
                             4465.01  4544.94  4545.99

 Zero-point correction=                           0.083374 (Hartree/Particle)
 Thermal correction to Energy=                    0.087960
 Thermal correction to Enthalpy=                  0.088904
 Thermal correction to Gibbs Free Energy=         0.056413
 Sum of electronic and zero-point Energies=           -193.091131
 Sum of electronic and thermal Energies=              -193.086545
 Sum of electronic and thermal Enthalpies=            -193.085600
 Sum of electronic and thermal Free Energies=         -193.118092

                     E (Thermal)             CV                S
                      KCal/Mol        Cal/Mol-Kelvin    Cal/Mol-Kelvin
 Total                   55.196             14.881             68.384
 Electronic               0.000              0.000              0.000
 Translational            0.889              2.981             38.096
 Rotational               0.889              2.981             24.160
 Vibrational             53.418              8.919              6.128
 Vibration     1          0.610              1.930              3.050
 Vibration     2          0.749              1.515              1.043
 Vibration     3          0.844              1.276              0.688
 Vibration     4          0.888              1.178              0.581

 Normal termination of Gaussian 09 at Mon May 13 15:47:05 2024.
