 Gaussian 09, Revision A.02,
 Gaussian 09:  EM64L-G09RevA.02 11-Jun-2009

 ----------------------------------------------
 #p B3LYP/6-31+g(d,p) opt freq pop=full gfinput
 ----------------------------------------------

 -----
 etano
 -----
 Symbolic Z-matrix:
 Charge =  0 Multiplicity = 1

 SCF Done:  E(RB3LYP) =  -79.8266074533     A.U. after    8 cycles
 SCF Done:  E(RB3LYP) =  -79.8414134822     A.U. after    7 cycles
 SCF Done:  E(RB3LYP) =  -79.8416048829     A.U. after    7 cycles
 SCF Done:  E(RB3LYP) =  -79.8416409097     A.U. after    6 cycles
 SCF Done:  E(RB3LYP) =  -79.8416414022     A.U. after    5 cycles
 Optimization completed.
    -- Stationary point found.
 Normal termination of Gaussian 09 at Fri Jun 21 18:06:15 2024.

 ----------------------------------------------------------------------
 #P Geom=AllCheck Guess=TCheck SCRF=Check GenChk RB3LYP/6-31+G(d,p) Fre
 q
 ----------------------------------------------------------------------

 etano
 -----
 Redundant internal coordinates taken from checkpoint file:
 tmp.chk
 Charge =  0 Multiplicity = 1

                         Standard orientation:
 ---------------------------------------------------------------------
 Center     Atomic      Atomic             Coordinates (Angstroms)
 Number     Number       Type             X           Y           Z
 ---------------------------------------------------------------------
      1          6           0        0.000000    0.000000    0.765976
      2          6           0       -0.000000   -0.000000   -0.765976
      3          1           0        0.000000    1.020443    1.164798
      4          1           0       -0.883730   -0.510222    1.164798
      5          1           0        0.883730   -0.510222    1.164798
      6          1           0        0.883730    0.510222   -1.164798
      7          1           0       -0.000000   -1.020443   -1.164798
      8          1           0       -0.883730    0.510222   -1.164798
 ---------------------------------------------------------------------

 SCF Done:  E(RB3LYP) =  -79.8416414022     A.U. after    1 cycles

 The electronic state is 1-A1G.
 Alpha  occ. eigenvalues --  -10.17805 -10.17784  -0.75305  -0.61714  -0.43472
 Alpha  occ. eigenvalues --   -0.43472  -0.36861  -0.34447  -0.34447
 Alpha virt. eigenvalues --    0.01748   0.03029   0.05368   0.05368   0.08039
 Alpha virt. eigenvalues --    0.08966   0.08966   0.14269   0.19586   0.19586
 Alpha virt. eigenvalues --    0.19781   0.19781   0.25508   0.29763   0.32689

 Mulliken atomic charges:
              1
     1  C   -0.434304
     2  C   -0.434304
     3  H    0.144768
     4  H    0.144768
     5  H    0.144768
     6  H    0.144768
     7  H    0.144768
     8  H    0.144768
 Sum of Mulliken atomic charges =   0.00000

 Dipole moment (field-independent basis, Debye):
    X=             -0.0000    Y=              0.0000    Z=             -0.0000  Tot=              0.0000
 Quadrupole moment (field-independent basis, Debye-Ang):
   XX=            -15.0764   YY=            -15.0764   ZZ=            -15.7627
   XY=             -0.0000   XZ=              0.0000   YZ=              0.0000

  Exact polarizability:  24.573   0.000  24.573  -0.000  -0.000  27.358
 Approx polarizability:  31.725  -0.000  31.725  -0.000  -0.000  31.264

                     1                      2                      3
                    A1U                    EU                     EU
 Frequencies --   308.4629               824.7116               824.7119
 Red. masses --     1.0078                 1.0577                 1.0577
 Frc consts  --     0.0565                 0.4239                 0.4239
 IR Inten    --     0.0000                 4.1520                 4.1508

                     4                      5                      6
                    A1G                    EG                     EG
 Frequencies --   999.8001              1219.3226              1219.3248
 Red. masses --     3.2997                 1.4668                 1.4668
 Frc consts  --     1.9434                 1.2849                 1.2849
 IR Inten    --     0.0000                 0.0000                 0.0000

                     7                      8                      9
                    A2U                    A1G                    EG
 Frequencies --  1408.7340              1430.5406              1507.9474
 Red. masses --     1.1983                 1.2498                 1.0189
 Frc consts  --     1.4011                 1.5070                 1.3650
 IR Inten    --     1.1157                 0.0000                 0.0000

                    10                     11                     12
                    EG                     EU                     EU
 Frequencies --  1507.9481              1509.5945              1509.5965
 Red. masses --     1.0189                 1.0621                 1.0621
 Frc consts  --     1.3650                 1.4260                 1.4260
 IR Inten    --     0.0000                11.6890                11.6914

                    13                     14                     15
                    A2U                    A1G                    EG
 Frequencies --  3036.2099              3037.2642              3089.6106
 Red. masses --     1.0341                 1.0367                 1.1016
 Frc consts  --     5.6165                 5.6344                 6.1957
 IR Inten    --    69.1748                 0.0000                 0.0000

                    16                     17                     18
                    EG                     EU                     EU
 Frequencies --  3089.6108              3113.1433              3113.1451
 Red. masses --     1.1016                 1.1028                 1.1028
 Frc consts  --     6.1957                 6.2971                 6.2971
 IR Inten    --     0.0000                72.7944                72.7874

 - Thermochemistry -
 -------------------
 Temperature   298.150 Kelvin.  Pressure   1.00000 Atm.
 Atom     1 has atomic number  6 and mass  12.00000

 Molecular mass:    30.04695 amu.
 Principal axes and moments of inertia in atomic units:
                           1         2         3
     Eigenvalues --    22.48598  90.82595  90.82595
           X           -0.00000   0.99994   0.01078
           Y            0.00000  -0.01078   0.99994
           Z            1.00000   0.00000  -0.00000
 This molecule is a prolate symmetric top.
 Rotational symmetry number  6.
 Rotational temperatures (Kelvin)      3.85190     0.95362     0.95362
 Rotational constants (GHZ):          80.26074    19.87033    19.87033
 Zero-point vibrational energy     195886.6 (Joules/Mol)
                                   46.81802 (Kcal/Mol)
 Warning -- explicit consideration of   1 degrees of freedom as
           vibrations may cause significant error
 Vibrational temperatures:    443.81  1186.57  1186.58  1438.49  1754.33
          (Kelvin)           1754.33  2026.85  2058.23  2169.60  2169.60
                             2171.97  2171.97  4368.42  4369.94  4445.26
                             4445.26  4479.11  4479.12

 Zero-point correction=                           0.074609 (Hartree/Particle)
 Thermal correction to Energy=                    0.078095
 Thermal correction to Enthalpy=                  0.079039
 Thermal correction to Gibbs Free Energy=         0.053180
 Sum of electronic and zero-point Energies=            -79.767032
 Sum of electronic and thermal Energies=               -79.763546
 Sum of electronic and thermal Enthalpies=             -79.762602
 Sum of electronic and thermal Free Energies=          -79.788461

                     E (Thermal)             CV                S
                      KCal/Mol        Cal/Mol-Kelvin    Cal/Mol-Kelvin
 Total                   49.005             10.093             54.425
 Electronic               0.000              0.000              0.000
 Translational            0.889              2.981             36.134
 Rotational               0.889              2.981             16.295
 Vibrational             47.228              4.131              1.995
 Vibration     1          0.698              1.658              1.371

 Optimization completed.
    -- Stationary point found.
 Normal termination of Gaussian 09 at Fri Jun 21 18:06:28 2024.
