 Gaussian 09, Revision A.02,
 Gaussian 09:  EM64L-G09RevA.02 11-Jun-2009

 -------------------------
 #p B3LYP/6-31+g(d,p) scan
 -------------------------

 -----
 etano
 -----
 Symbolic Z-matrix:
 Charge =  0 Multiplicity = 1

 SCF Done:  E(RB3LYP) =  -79.8266074533     A.U. after    8 cycles

 The electronic state is 1-A1G.
 Alpha  occ. eigenvalues --  -10.16900 -10.16849  -0.78453  -0.59846  -0.45504
 Alpha  occ. eigenvalues --   -0.45504  -0.37617  -0.33294  -0.33294
 Alpha virt. eigenvalues --    0.01715   0.03568   0.04836   0.04836   0.07723
 Alpha virt. eigenvalues --    0.09113   0.09113   0.14488   0.18689   0.18689
 Alpha virt. eigenvalues --    0.20494   0.20494   0.28281   0.28914   0.35218

 Mulliken atomic charges:
              1
     1  C   -0.417010
     2  C   -0.417010
     3  H    0.139003
     4  H    0.139003
     5  H    0.139003
     6  H    0.139003
     7  H    0.139003
     8  H    0.139003
 Sum of Mulliken atomic charges =  -0.00000

 Dipole moment (field-independent basis, Debye):
    X=              0.0000    Y=              0.0000    Z=              0.0000  Tot=              0.0000
 Quadrupole moment (field-independent basis, Debye-Ang):
   XX=            -14.8492   YY=            -14.8492   ZZ=            -16.5975
   XY=             -0.0000   XZ=             -0.0000   YZ=             -0.0000

 SCF Done:  E(RB3LYP) =  -79.8259935295     A.U. after    9 cycles
 SCF Done:  E(RB3LYP) =  -79.8243064941     A.U. after    7 cycles
 SCF Done:  E(RB3LYP) =  -79.8219806520     A.U. after    7 cycles
 SCF Done:  E(RB3LYP) =  -79.8196261229     A.U. after    7 cycles
 SCF Done:  E(RB3LYP) =  -79.8178843658     A.U. after    7 cycles

                         Standard orientation:
 ---------------------------------------------------------------------
 Center     Atomic      Atomic             Coordinates (Angstroms)
 Number     Number       Type             X           Y           Z
 ---------------------------------------------------------------------
      1          6           0        0.000000    0.000000    0.700000
      2          6           0        0.000000    0.000000   -0.700000
      3          1           0        0.000000    1.040070    1.058125
      4          1           0       -0.900727   -0.520035    1.058125
      5          1           0        0.900727   -0.520035    1.058125
      6          1           0        0.900727   -0.520035   -1.058125
      7          1           0       -0.900727   -0.520035   -1.058125
      8          1           0        0.000000    1.040070   -1.058125
 ---------------------------------------------------------------------

 SCF Done:  E(RB3LYP) =  -79.8172447266     A.U. after    7 cycles
 Normal termination of Gaussian 09 at Fri Jun 21 18:19:58 2024.
