 Gaussian 09, Revision A.02,
 Gaussian 09:  EM64L-G09RevA.02 11-Jun-2009

 ------------------------
 #p B3LYP/6-31+g(d,p) opt
 ------------------------

 -------
 propano
 -------
 Symbolic Z-matrix:
 Charge =  0 Multiplicity = 1

 SCF Done:  E(RB3LYP) =  -119.124947330     A.U. after   10 cycles
 SCF Done:  E(RB3LYP) =  -119.153283842     A.U. after   10 cycles
 SCF Done:  E(RB3LYP) =  -119.158688145     A.U. after    9 cycles
 SCF Done:  E(RB3LYP) =  -119.159055940     A.U. after    8 cycles
 SCF Done:  E(RB3LYP) =  -119.159107895     A.U. after    8 cycles
 SCF Done:  E(RB3LYP) =  -119.159123866     A.U. after    7 cycles
 SCF Done:  E(RB3LYP) =  -119.159142332     A.U. after    7 cycles
 SCF Done:  E(RB3LYP) =  -119.159151813     A.U. after    7 cycles
 Optimization completed.
    -- Stationary point found.

                         Standard orientation:
 ---------------------------------------------------------------------
 Center     Atomic      Atomic             Coordinates (Angstroms)
 Number     Number       Type             X           Y           Z
 ---------------------------------------------------------------------
      1          6           0        1.278313   -0.259966   -0.000009
      2          6           0       -0.000006    0.586674    0.000038
      3          1           0        1.323141   -0.907381    0.884086
      4          1           0        1.323497   -0.906509   -0.884696
      5          1           0        2.176672    0.367250    0.000535
      6          1           0        0.000089    1.246353    0.877729
      7          1           0       -0.000026    1.246404   -0.877675
      8          6           0       -1.278310   -0.259960    0.000019
      9          1           0       -1.324212   -0.906112    0.884973
     10          1           0       -2.176647    0.367287   -0.001440
     11          1           0       -1.322501   -0.907780   -0.883798
 ---------------------------------------------------------------------

 The electronic state is 1-A.
 Alpha  occ. eigenvalues --  -10.18442 -10.17579 -10.17578  -0.77986  -0.68124
 Alpha  occ. eigenvalues --   -0.58541  -0.45644  -0.43607  -0.39840  -0.38133
 Alpha  occ. eigenvalues --   -0.33891  -0.33764  -0.32890
 Alpha virt. eigenvalues --    0.01505   0.03020   0.03497   0.04557   0.06970
 Alpha virt. eigenvalues --    0.07712   0.08257   0.08564   0.09308   0.11344
 Alpha virt. eigenvalues --    0.12338   0.14922   0.19609   0.20076   0.20178

 Mulliken atomic charges:
              1
     1  C   -0.488330
     2  C   -0.154352
     3  H    0.142356
     4  H    0.142356
     5  H    0.142917
     6  H    0.137877
     7  H    0.137873
     8  C   -0.488330
     9  H    0.142374
    10  H    0.142918
    11  H    0.142341
 Sum of Mulliken atomic charges =  -0.00000

 Dipole moment (field-independent basis, Debye):
    X=             -0.0000    Y=              0.0863    Z=              0.0000  Tot=              0.0863
 Quadrupole moment (field-independent basis, Debye-Ang):
   XX=            -22.5547   YY=            -22.2066   ZZ=            -21.7144
   XY=              0.0002   XZ=              0.0001   YZ=             -0.0003

 Normal termination of Gaussian 09 at Fri Jun 21 19:16:29 2024.
