 Gaussian 09, Revision A.02,
 Gaussian 09:  EM64L-G09RevA.02 11-Jun-2009

 ------------------------
 #p B3LYP/6-31+g(d,p) opt
 ------------------------

 ------
 metano
 ------
 Symbolic Z-matrix:
 Charge =  0 Multiplicity = 1

 SCF Done:  E(RB3LYP) =  -40.5221035887     A.U. after    8 cycles
 SCF Done:  E(RB3LYP) =  -40.5261186243     A.U. after    9 cycles
 SCF Done:  E(RB3LYP) =  -40.5261370089     A.U. after   10 cycles
 Optimization completed.
    -- Stationary point found.

                         Standard orientation:
 ---------------------------------------------------------------------
 Center     Atomic      Atomic             Coordinates (Angstroms)
 Number     Number       Type             X           Y           Z
 ---------------------------------------------------------------------
      1          6           0        0.000220    0.000599   -0.000107
      2          1           0       -0.076122   -0.728418   -0.810945
      3          1           0        0.976945    0.488421   -0.039070
      4          1           0       -0.788884    0.748694   -0.107729
      5          1           0       -0.113261   -0.512288    0.958383
 ---------------------------------------------------------------------

 The electronic state is 1-A.
 Alpha  occ. eigenvalues --  -10.17259  -0.69592  -0.39417  -0.39378  -0.39346
 Alpha virt. eigenvalues --    0.01597   0.06108   0.06112   0.06116   0.18091
 Alpha virt. eigenvalues --    0.18115   0.18144   0.27737   0.63800   0.63811
 Alpha virt. eigenvalues --    0.63821   0.90949   0.90997   0.91056   1.05084

 Mulliken atomic charges:
              1
     1  C   -0.610281
     2  H    0.152488
     3  H    0.152683
     4  H    0.152624
     5  H    0.152485
 Sum of Mulliken atomic charges =  -0.00000

 Dipole moment (field-independent basis, Debye):
    X=             -0.0006    Y=             -0.0018    Z=              0.0004  Tot=              0.0019
 Quadrupole moment (field-independent basis, Debye-Ang):
   XX=             -8.5057   YY=             -8.5130   ZZ=             -8.5194
   XY=              0.0002   XZ=              0.0001   YZ=             -0.0002

 Normal termination of Gaussian 09 at Fri Jun 21 17:31:57 2024.
