 Gaussian 09, Revision A.02,
 Gaussian 09:  EM64L-G09RevA.02 11-Jun-2009

 -----------------------------
 #p B3LYP/6-31+g(d,p) opt freq
 -----------------------------

 -----------------
 Hydrogen Molecule
 -----------------
 Symbolic Z-matrix:
 Charge =  0 Multiplicity = 1

 SCF Done:  E(RB3LYP) =  -1.17850460568     A.U. after    6 cycles
 SCF Done:  E(RB3LYP) =  -1.17853932535     A.U. after    4 cycles
 Optimization completed.
    -- Stationary point found.
 Normal termination of Gaussian 09 at Sat Jun 22 12:31:17 2024.

 ----------------------------------------------------------------------
 #P Geom=AllCheck Guess=TCheck SCRF=Check GenChk RB3LYP/6-31+G(d,p) Fre
 q
 ----------------------------------------------------------------------

 Hydrogen Molecule
 -----------------
 Redundant internal coordinates taken from checkpoint file:
 tmp.chk
 Charge =  0 Multiplicity = 1

                         Standard orientation:
 ---------------------------------------------------------------------
 Center     Atomic      Atomic             Coordinates (Angstroms)
 Number     Number       Type             X           Y           Z
 ---------------------------------------------------------------------
      1          1           0        0.000000    0.000000    0.371460
      2          1           0        0.000000    0.000000   -0.371460
 ---------------------------------------------------------------------

 SCF Done:  E(RB3LYP) =  -1.17853932535     A.U. after    1 cycles

 The electronic state is 1-SGG.
 Alpha  occ. eigenvalues --   -0.43155
 Alpha virt. eigenvalues --    0.10093   0.57705   1.03599   1.67472   1.67472
 Alpha virt. eigenvalues --    2.37864   2.61552   2.61552   4.15225

 Mulliken atomic charges:
              1
     1  H    0.000000
     2  H    0.000000
 Sum of Mulliken atomic charges =   0.00000

 Dipole moment (field-independent basis, Debye):
    X=              0.0000    Y=              0.0000    Z=             -0.0000  Tot=              0.0000
 Quadrupole moment (field-independent basis, Debye-Ang):
   XX=             -2.0293   YY=             -2.0293   ZZ=             -1.5076
   XY=             -0.0000   XZ=             -0.0000   YZ=              0.0000

  Exact polarizability:   0.582   0.000   0.582  -0.000  -0.000   6.367
 Approx polarizability:   0.599  -0.000   0.599  -0.000  -0.000   7.766

                     1
                    SGG
 Frequencies --  4463.8510
 Red. masses --     1.0078
 Frc consts  --    11.8319
 IR Inten    --     0.0000

 - Thermochemistry -
 -------------------
 Temperature   298.150 Kelvin.  Pressure   1.00000 Atm.
 Atom     1 has atomic number  1 and mass   1.00783

 Molecular mass:     2.01565 amu.
 Principal axes and moments of inertia in atomic units:
                           1         2         3
     Eigenvalues --    -0.00000   0.99320   0.99320
           X           -0.00000   0.70711   0.70711
           Y           -0.00000   0.70711  -0.70711
           Z            1.00000   0.00000   0.00000
 This molecule is a prolate symmetric top.
 Rotational symmetry number  2.
 Rotational temperature (Kelvin)     87.20695
 Rotational constant (GHZ):        1817.100211
 Zero-point vibrational energy      26699.8 (Joules/Mol)
                                    6.38140 (Kcal/Mol)
 Vibrational temperatures:   6422.48
          (Kelvin)

 Zero-point correction=                           0.010169 (Hartree/Particle)
 Thermal correction to Energy=                    0.012530
 Thermal correction to Enthalpy=                  0.013474
 Thermal correction to Gibbs Free Energy=        -0.001318
 Sum of electronic and zero-point Energies=             -1.168370
 Sum of electronic and thermal Energies=                -1.166009
 Sum of electronic and thermal Enthalpies=              -1.165065
 Sum of electronic and thermal Free Energies=           -1.179858

                     E (Thermal)             CV                S
                      KCal/Mol        Cal/Mol-Kelvin    Cal/Mol-Kelvin
 Total                    7.863              4.968             31.133
 Electronic               0.000              0.000              0.000
 Translational            0.889              2.981             28.080
 Rotational               0.592              1.987              3.053
 Vibrational              6.381              0.000              0.000

 Optimization completed.
    -- Stationary point found.
 Normal termination of Gaussian 09 at Sat Jun 22 12:31:18 2024.
