 Gaussian 09, Revision A.02,
 Gaussian 09:  EM64L-G09RevA.02 11-Jun-2009

 --------------------------------------
 #p B3LYP/6-31+g(d,p) opt=ModRedun freq
 --------------------------------------

 -----------------
 Hydrogen Molecule
 -----------------
 Symbolic Z-matrix:
 Charge =  0 Multiplicity = 1

 SCF Done:  E(RB3LYP) =  -1.17850460568     A.U. after    6 cycles
 Optimization completed.
    -- Stationary point found.
 Normal termination of Gaussian 09 at Sat Jun 22 12:57:02 2024.

 ----------------------------------------------------------------------
 #P Geom=AllCheck Guess=TCheck SCRF=Check GenChk RB3LYP/6-31+G(d,p) Fre
 q
 ----------------------------------------------------------------------

 Hydrogen Molecule
 -----------------
 Redundant internal coordinates taken from checkpoint file:
 tmp.chk
 Charge =  0 Multiplicity = 1

                         Standard orientation:
 ---------------------------------------------------------------------
 Center     Atomic      Atomic             Coordinates (Angstroms)
 Number     Number       Type             X           Y           Z
 ---------------------------------------------------------------------
      1          1           0        0.000000    0.000000    0.375000
      2          1           0        0.000000    0.000000   -0.375000
 ---------------------------------------------------------------------

 SCF Done:  E(RB3LYP) =  -1.17850460568     A.U. after    1 cycles

 The electronic state is 1-SGG.
 Alpha  occ. eigenvalues --   -0.43009
 Alpha virt. eigenvalues --    0.09892   0.57963   1.03022   1.67546   1.67546
 Alpha virt. eigenvalues --    2.36520   2.60765   2.60765   4.11828

 Mulliken atomic charges:
              1
     1  H   -0.000000
     2  H   -0.000000
 Sum of Mulliken atomic charges =  -0.00000

 Dipole moment (field-independent basis, Debye):
    X=             -0.0000    Y=              0.0000    Z=             -0.0000  Tot=              0.0000
 Quadrupole moment (field-independent basis, Debye-Ang):
   XX=             -2.0383   YY=             -2.0383   ZZ=             -1.5088
   XY=             -0.0000   XZ=             -0.0000   YZ=              0.0000

  Exact polarizability:   0.583  -0.000   0.583   0.000  -0.000   6.450
 Approx polarizability:   0.600  -0.000   0.600  -0.000  -0.000   7.896

                     1
                    SGG
 Frequencies --  4363.6717
 Red. masses --     1.0078
 Frc consts  --    11.3068
 IR Inten    --     0.0000

 - Thermochemistry -
 -------------------
 Temperature   298.150 Kelvin.  Pressure   1.00000 Atm.
 Atom     1 has atomic number  1 and mass   1.00783

 Molecular mass:     2.01565 amu.
 Principal axes and moments of inertia in atomic units:
                           1         2         3
     Eigenvalues --     0.00000   1.01222   1.01222
           X           -0.00000   1.00000  -0.00000
           Y            0.00000   0.00000   1.00000
           Z            1.00000   0.00000  -0.00000
 This molecule is a prolate symmetric top.
 Rotational symmetry number  2.
 Rotational temperature (Kelvin)     85.56807
 Rotational constant (GHZ):        1782.951468
 Zero-point vibrational energy      26100.6 (Joules/Mol)
                                    6.23818 (Kcal/Mol)
 Vibrational temperatures:   6278.34
          (Kelvin)

 Zero-point correction=                           0.009941 (Hartree/Particle)
 Thermal correction to Energy=                    0.012302
 Thermal correction to Enthalpy=                  0.013246
 Thermal correction to Gibbs Free Energy=        -0.001564
 Sum of electronic and zero-point Energies=             -1.168563
 Sum of electronic and thermal Energies=                -1.166203
 Sum of electronic and thermal Enthalpies=              -1.165259
 Sum of electronic and thermal Free Energies=           -1.180069

                     E (Thermal)             CV                S
                      KCal/Mol        Cal/Mol-Kelvin    Cal/Mol-Kelvin
 Total                    7.719              4.968             31.171
 Electronic               0.000              0.000              0.000
 Translational            0.889              2.981             28.080
 Rotational               0.592              1.987              3.090
 Vibrational              6.238              0.000              0.000

 Optimization completed.
    -- Stationary point found.
 Normal termination of Gaussian 09 at Sat Jun 22 12:57:03 2024.
