 Gaussian 09, Revision A.02,
 Gaussian 09:  EM64L-G09RevA.02 11-Jun-2009

 --------------------------------------
 #p B3LYP/6-31+g(d,p) opt=ModRedun freq
 --------------------------------------

 -----------------
 Hydrogen Molecule
 -----------------
 Symbolic Z-matrix:
 Charge =  0 Multiplicity = 1

 SCF Done:  E(RB3LYP) =  -1.15928036111     A.U. after    6 cycles
 Optimization completed.
    -- Stationary point found.
 Normal termination of Gaussian 09 at Sat Jun 22 13:16:37 2024.

 ----------------------------------------------------------------------
 #P Geom=AllCheck Guess=TCheck SCRF=Check GenChk RB3LYP/6-31+G(d,p) Fre
 q
 ----------------------------------------------------------------------

 Hydrogen Molecule
 -----------------
 Redundant internal coordinates taken from checkpoint file:
 tmp.chk
 Charge =  0 Multiplicity = 1

                         Standard orientation:
 ---------------------------------------------------------------------
 Center     Atomic      Atomic             Coordinates (Angstroms)
 Number     Number       Type             X           Y           Z
 ---------------------------------------------------------------------
      1          1           0        0.000000    0.000000    0.300000
      2          1           0        0.000000    0.000000   -0.300000
 ---------------------------------------------------------------------

 SCF Done:  E(RB3LYP) =  -1.15928036111     A.U. after    1 cycles

 The electronic state is 1-SGG.
 Alpha  occ. eigenvalues --   -0.46409
 Alpha virt. eigenvalues --    0.14027   0.52464   1.17748   1.67786   1.67786
 Alpha virt. eigenvalues --    2.63604   2.77867   2.77867   5.27445

 Mulliken atomic charges:
              1
     1  H    0.000000
     2  H    0.000000
 Sum of Mulliken atomic charges =   0.00000

 Dipole moment (field-independent basis, Debye):
    X=              0.0000    Y=              0.0000    Z=             -0.0000  Tot=              0.0000
 Quadrupole moment (field-independent basis, Debye-Ang):
   XX=             -1.8361   YY=             -1.8361   ZZ=             -1.4626
   XY=             -0.0000   XZ=             -0.0000   YZ=              0.0000

  Exact polarizability:   0.555  -0.000   0.555   0.000   0.000   4.820
 Approx polarizability:   0.581  -0.000   0.581  -0.000  -0.000   5.500

                     1
                    SGG
 Frequencies --  7095.4286
 Red. masses --     1.0078
 Frc consts  --    29.8946
 IR Inten    --     0.0000

 - Thermochemistry -
 -------------------
 Temperature   298.150 Kelvin.  Pressure   1.00000 Atm.
 Atom     1 has atomic number  1 and mass   1.00783

 Molecular mass:     2.01565 amu.
 Principal axes and moments of inertia in atomic units:
                           1         2         3
     Eigenvalues --    -0.00000   0.64782   0.64782
           X           -0.00000   1.00000  -0.00000
           Y            0.00000   0.00000   1.00000
           Z            1.00000   0.00000  -0.00000
 This molecule is a prolate symmetric top.
 Rotational symmetry number  2.
 Rotational temperature (Kelvin)    133.70011
 Rotational constant (GHZ):        2785.861668
 Zero-point vibrational energy      42440.1 (Joules/Mol)
                                   10.14342 (Kcal/Mol)
 Vibrational temperatures:  10208.73
          (Kelvin)

 Zero-point correction=                           0.016165 (Hartree/Particle)
 Thermal correction to Energy=                    0.018525
 Thermal correction to Enthalpy=                  0.019469
 Thermal correction to Gibbs Free Energy=         0.005080
 Sum of electronic and zero-point Energies=             -1.143116
 Sum of electronic and thermal Energies=                -1.140755
 Sum of electronic and thermal Enthalpies=              -1.139811
 Sum of electronic and thermal Free Energies=           -1.154200

                     E (Thermal)             CV                S
                      KCal/Mol        Cal/Mol-Kelvin    Cal/Mol-Kelvin
 Total                   11.625              4.968             30.284
 Electronic               0.000              0.000              0.000
 Translational            0.889              2.981             28.080
 Rotational               0.592              1.987              2.204
 Vibrational             10.143              0.000              0.000

 Optimization completed.
    -- Stationary point found.
 Normal termination of Gaussian 09 at Sat Jun 22 13:16:38 2024.
