 Gaussian 09, Revision A.02,
 Gaussian 09:  EM64L-G09RevA.02 11-Jun-2009

 --------------------------------------
 #p B3LYP/6-31+g(d,p) opt=ModRedun freq
 --------------------------------------

 -----------------
 Hydrogen Molecule
 -----------------
 Symbolic Z-matrix:
 Charge =  0 Multiplicity = 1

 SCF Done:  E(RB3LYP) =  -1.10564883199     A.U. after    7 cycles
 Optimization completed.
    -- Stationary point found.
 Normal termination of Gaussian 09 at Sat Jun 22 13:14:04 2024.

 ----------------------------------------------------------------------
 #P Geom=AllCheck Guess=TCheck SCRF=Check GenChk RB3LYP/6-31+G(d,p) Fre
 q
 ----------------------------------------------------------------------

 Hydrogen Molecule
 -----------------
 Redundant internal coordinates taken from checkpoint file:
 tmp.chk
 Charge =  0 Multiplicity = 1

                         Standard orientation:
 ---------------------------------------------------------------------
 Center     Atomic      Atomic             Coordinates (Angstroms)
 Number     Number       Type             X           Y           Z
 ---------------------------------------------------------------------
      1          1           0        0.000000    0.000000    0.250000
      2          1           0        0.000000    0.000000   -0.250000
 ---------------------------------------------------------------------

 SCF Done:  E(RB3LYP) =  -1.10564883199     A.U. after    1 cycles

 The electronic state is 1-SGG.
 Alpha  occ. eigenvalues --   -0.49081
 Alpha virt. eigenvalues --    0.16555   0.48824   1.31654   1.69768   1.69768
 Alpha virt. eigenvalues --    2.78704   2.89393   2.89393   6.83810

 Mulliken atomic charges:
              1
     1  H   -0.000000
     2  H   -0.000000
 Sum of Mulliken atomic charges =  -0.00000

 Dipole moment (field-independent basis, Debye):
    X=             -0.0000    Y=              0.0000    Z=             -0.0000  Tot=              0.0000
 Quadrupole moment (field-independent basis, Debye-Ang):
   XX=             -1.6907   YY=             -1.6907   ZZ=             -1.4067
   XY=             -0.0000   XZ=             -0.0000   YZ=              0.0000

  Exact polarizability:   0.531  -0.000   0.531   0.000   0.000   3.881
 Approx polarizability:   0.561  -0.000   0.561  -0.000  -0.000   4.264

                     1
                    SGG
 Frequencies -- 10060.1188
 Red. masses --     1.0078
 Frc consts  --    60.0954
 IR Inten    --     0.0000

 - Thermochemistry -
 -------------------
 Temperature   298.150 Kelvin.  Pressure   1.00000 Atm.
 Atom     1 has atomic number  1 and mass   1.00783

 Molecular mass:     2.01565 amu.
 Principal axes and moments of inertia in atomic units:
                           1         2         3
     Eigenvalues --    -0.00000   0.44988   0.44988
           X           -0.00000   0.70711   0.70711
           Y           -0.00000   0.70711  -0.70711
           Z            1.00000   0.00000   0.00000
 This molecule is a prolate symmetric top.
 Rotational symmetry number  2.
 Rotational temperature (Kelvin)    192.52816
 Rotational constant (GHZ):        4011.640802
 Zero-point vibrational energy      60172.9 (Joules/Mol)
                                   14.38166 (Kcal/Mol)
 Vibrational temperatures:  14474.25
          (Kelvin)

 Zero-point correction=                           0.022919 (Hartree/Particle)
 Thermal correction to Energy=                    0.025279
 Thermal correction to Enthalpy=                  0.026223
 Thermal correction to Gibbs Free Energy=         0.012179
 Sum of electronic and zero-point Energies=             -1.082730
 Sum of electronic and thermal Energies=                -1.080370
 Sum of electronic and thermal Enthalpies=              -1.079426
 Sum of electronic and thermal Free Energies=           -1.093470

                     E (Thermal)             CV                S
                      KCal/Mol        Cal/Mol-Kelvin    Cal/Mol-Kelvin
 Total                   15.863              4.968             29.559
 Electronic               0.000              0.000              0.000
 Translational            0.889              2.981             28.080
 Rotational               0.592              1.987              1.479
 Vibrational             14.382              0.000              0.000

 Optimization completed.
    -- Stationary point found.
 Normal termination of Gaussian 09 at Sat Jun 22 13:14:05 2024.
