 Gaussian 09, Revision A.02,
 Gaussian 09:  EM64L-G09RevA.02 11-Jun-2009

 --------------------------------------
 #p B3LYP/6-31+g(d,p) opt=ModRedun freq
 --------------------------------------

 -----------------
 Hydrogen Molecule
 -----------------
 Symbolic Z-matrix:
 Charge =  0 Multiplicity = 1

 SCF Done:  E(RB3LYP) =  -1.15099889053     A.U. after    5 cycles
 Optimization completed.
    -- Stationary point found.
 Normal termination of Gaussian 09 at Sat Jun 22 13:03:58 2024.

 ----------------------------------------------------------------------
 #P Geom=AllCheck Guess=TCheck SCRF=Check GenChk RB3LYP/6-31+G(d,p) Fre
 q
 ----------------------------------------------------------------------

 Hydrogen Molecule
 -----------------
 Redundant internal coordinates taken from checkpoint file:
 tmp.chk
 Charge =  0 Multiplicity = 1

                         Standard orientation:
 ---------------------------------------------------------------------
 Center     Atomic      Atomic             Coordinates (Angstroms)
 Number     Number       Type             X           Y           Z
 ---------------------------------------------------------------------
      1          1           0        0.000000    0.000000    0.500000
      2          1           0        0.000000    0.000000   -0.500000
 ---------------------------------------------------------------------

 SCF Done:  E(RB3LYP) =  -1.15099889053     A.U. after    1 cycles

 The electronic state is 1-SGG.
 Alpha  occ. eigenvalues --   -0.38581
 Alpha virt. eigenvalues --    0.02805   0.67043   0.88099   1.75172   1.75172
 Alpha virt. eigenvalues --    1.91970   2.35480   2.35480   3.37327

 Mulliken atomic charges:
              1
     1  H   -0.000000
     2  H   -0.000000
 Sum of Mulliken atomic charges =  -0.00000

 Dipole moment (field-independent basis, Debye):
    X=              0.0000    Y=              0.0000    Z=              0.0000  Tot=              0.0000
 Quadrupole moment (field-independent basis, Debye-Ang):
   XX=             -2.3213   YY=             -2.3213   ZZ=             -1.4956
   XY=             -0.0000   XZ=             -0.0000   YZ=              0.0000

  Exact polarizability:   0.588  -0.000   0.588   0.000  -0.000   9.746
 Approx polarizability:   0.589  -0.000   0.589  -0.000  -0.000  13.890

                     1
                    SGG
 Frequencies --  1798.0778
 Red. masses --     1.0078
 Frc consts  --     1.9198
 IR Inten    --     0.0000

 - Thermochemistry -
 -------------------
 Temperature   298.150 Kelvin.  Pressure   1.00000 Atm.
 Atom     1 has atomic number  1 and mass   1.00783

 Molecular mass:     2.01565 amu.
 Principal axes and moments of inertia in atomic units:
                           1         2         3
     Eigenvalues --    -0.00000   1.79950   1.79950
           X           -0.00000   0.70711   0.70711
           Y           -0.00000   0.70711  -0.70711
           Z            1.00000   0.00000   0.00000
 This molecule is a prolate symmetric top.
 Rotational symmetry number  2.
 Rotational temperature (Kelvin)     48.13204
 Rotational constant (GHZ):        1002.910201
 Zero-point vibrational energy      10754.9 (Joules/Mol)
                                    2.57048 (Kcal/Mol)
 Vibrational temperatures:   2587.03
          (Kelvin)

 Zero-point correction=                           0.004096 (Hartree/Particle)
 Thermal correction to Energy=                    0.006458
 Thermal correction to Enthalpy=                  0.007402
 Thermal correction to Gibbs Free Energy=        -0.007953
 Sum of electronic and zero-point Energies=             -1.146903
 Sum of electronic and thermal Energies=                -1.144541
 Sum of electronic and thermal Enthalpies=              -1.143597
 Sum of electronic and thermal Free Energies=           -1.158952

                     E (Thermal)             CV                S
                      KCal/Mol        Cal/Mol-Kelvin    Cal/Mol-Kelvin
 Total                    4.053              4.994             32.317
 Electronic               0.000              0.000              0.000
 Translational            0.889              2.981             28.080
 Rotational               0.592              1.987              4.234
 Vibrational              2.571              0.026              0.003

 Optimization completed.
    -- Stationary point found.
 Normal termination of Gaussian 09 at Sat Jun 22 13:03:59 2024.
