 Gaussian 09, Revision A.02,
 Gaussian 09:  EM64L-G09RevA.02 11-Jun-2009

 --------------------------------------
 #p B3LYP/6-31+g(d,p) opt=ModRedun freq
 --------------------------------------

 -----------------
 Hydrogen Molecule
 -----------------
 Symbolic Z-matrix:
 Charge =  0 Multiplicity = 1

 SCF Done:  E(RB3LYP) = -0.953589987265     A.U. after    6 cycles
 Optimization completed.
    -- Stationary point found.
 Normal termination of Gaussian 09 at Sat Jun 22 13:36:13 2024.

 ----------------------------------------------------------------------
 #P Geom=AllCheck Guess=TCheck SCRF=Check GenChk RB3LYP/6-31+G(d,p) Fre
 q
 ----------------------------------------------------------------------

 Hydrogen Molecule
 -----------------
 Redundant internal coordinates taken from checkpoint file:
 tmp.chk
 Charge =  0 Multiplicity = 1

                         Standard orientation:
 ---------------------------------------------------------------------
 Center     Atomic      Atomic             Coordinates (Angstroms)
 Number     Number       Type             X           Y           Z
 ---------------------------------------------------------------------
      1          1           0        0.000000    0.000000    1.250000
      2          1           0        0.000000    0.000000   -1.250000
 ---------------------------------------------------------------------

 SCF Done:  E(RB3LYP) = -0.953589987265     A.U. after    1 cycles

 The electronic state is 1-SGG.
 Alpha  occ. eigenvalues --   -0.27623
 Alpha virt. eigenvalues --   -0.18621   0.70897   0.81721   1.99065   1.99065
 Alpha virt. eigenvalues --    1.99127   1.99127   1.99465   2.00249

 Mulliken atomic charges:
              1
     1  H   -0.000000
     2  H   -0.000000
 Sum of Mulliken atomic charges =  -0.00000

 Dipole moment (field-independent basis, Debye):
    X=             -0.0000    Y=              0.0000    Z=              0.0000  Tot=              0.0000
 Quadrupole moment (field-independent basis, Debye-Ang):
   XX=             -2.8208   YY=             -2.8208   ZZ=             -1.4983
   XY=             -0.0000   XZ=             -0.0000   YZ=              0.0000

  Exact polarizability:   0.474   0.000   0.474  -0.000  -0.000  41.344
 Approx polarizability:   0.455  -0.000   0.455  -0.000  -0.000 251.171

 ******    1 imaginary frequencies (negative Signs) ******

                     1
                    SGG
 Frequencies --  -989.3017
 Red. masses --     1.0078
 Frc consts  --     0.5812
 IR Inten    --     0.0000

 - Thermochemistry -
 -------------------
 Temperature   298.150 Kelvin.  Pressure   1.00000 Atm.
 Atom     1 has atomic number  1 and mass   1.00783

 Molecular mass:     2.01565 amu.
 Principal axes and moments of inertia in atomic units:
                           1         2         3
     Eigenvalues --     0.00000  11.24690  11.24690
           X           -0.00000   1.00000  -0.00000
           Y            0.00000   0.00000   1.00000
           Z            1.00000   0.00000  -0.00000
 This molecule is a prolate symmetric top.
 Rotational symmetry number  2.
 Rotational temperature (Kelvin)      7.70113
 Rotational constant (GHZ):         160.465632
    1 imaginary frequencies ignored.
 Zero-point vibrational energy          0.0 (Joules/Mol)
                                    0.00000 (Kcal/Mol)
 Vibrational temperatures:
          (Kelvin)

 Zero-point correction=                           0.000000 (Hartree/Particle)
 Thermal correction to Energy=                    0.002360
 Thermal correction to Enthalpy=                  0.003305
 Thermal correction to Gibbs Free Energy=        -0.013779
 Sum of electronic and zero-point Energies=             -0.953590
 Sum of electronic and thermal Energies=                -0.951230
 Sum of electronic and thermal Enthalpies=              -0.950285
 Sum of electronic and thermal Free Energies=           -0.967369

                     E (Thermal)             CV                S
                      KCal/Mol        Cal/Mol-Kelvin    Cal/Mol-Kelvin
 Total                    1.481              4.968             35.956
 Electronic               0.000              0.000              0.000
 Translational            0.889              2.981             28.080
 Rotational               0.592              1.987              7.875
 Vibrational              0.000              0.000              0.000

 Optimization completed.
    -- Stationary point found.
 Normal termination of Gaussian 09 at Sat Jun 22 13:36:15 2024.
