 Gaussian 09, Revision A.02,
 Gaussian 09:  EM64L-G09RevA.02 11-Jun-2009

 -------------------------
 #p B3LYP/6-31+g(d,p) scan
 -------------------------

 -----------------
 Hydrogen Molecule
 -----------------
 Symbolic Z-matrix:
 Charge =  0 Multiplicity = 1

 SCF Done:  E(RB3LYP) =  -1.17850460568     A.U. after    6 cycles

 The electronic state is 1-SGG.
 Alpha  occ. eigenvalues --   -0.43009
 Alpha virt. eigenvalues --    0.09892   0.57963   1.03022   1.67546   1.67546
 Alpha virt. eigenvalues --    2.36520   2.60765   2.60765   4.11828

 Mulliken atomic charges:
              1
     1  H   -0.000000
     2  H   -0.000000
 Sum of Mulliken atomic charges =  -0.00000

 Dipole moment (field-independent basis, Debye):
    X=             -0.0000    Y=              0.0000    Z=             -0.0000  Tot=              0.0000
 Quadrupole moment (field-independent basis, Debye-Ang):
   XX=             -2.0383   YY=             -2.0383   ZZ=             -1.5088
   XY=             -0.0000   XZ=             -0.0000   YZ=              0.0000

 SCF Done:  E(RB3LYP) =  -1.15099889053     A.U. after    6 cycles
 SCF Done:  E(RB3LYP) =  -1.10596591359     A.U. after    6 cycles
 SCF Done:  E(RB3LYP) =  -1.06267879937     A.U. after    5 cycles

                         Standard orientation:
 ---------------------------------------------------------------------
 Center     Atomic      Atomic             Coordinates (Angstroms)
 Number     Number       Type             X           Y           Z
 ---------------------------------------------------------------------
      1          1           0        0.000000    0.000000    0.875000
      2          1           0        0.000000    0.000000   -0.875000
 ---------------------------------------------------------------------

 SCF Done:  E(RB3LYP) =  -1.02585772968     A.U. after    6 cycles
 Normal termination of Gaussian 09 at Sat Jun 22 13:18:36 2024.
