 Gaussian 09, Revision A.02,
 Gaussian 09:  EM64L-G09RevA.02 11-Jun-2009

 -------------------------
 #p B3LYP/6-31+g(d,p) scan
 -------------------------

 -----------------
 Hydrogen Molecule
 -----------------
 Symbolic Z-matrix:
 Charge =  0 Multiplicity = 1

 SCF Done:  E(RB3LYP) = -0.939186506033     A.U. after    6 cycles

 The electronic state is 1-SGG.
 Alpha  occ. eigenvalues --   -0.26908
 Alpha virt. eigenvalues --   -0.19654   0.70068   0.81472   1.98937   1.98937
 Alpha virt. eigenvalues --    1.98975   1.98975   1.99136   1.99367

 Mulliken atomic charges:
              1
     1  H   -0.000000
     2  H   -0.000000
 Sum of Mulliken atomic charges =  -0.00000

 Dipole moment (field-independent basis, Debye):
    X=             -0.0000    Y=              0.0000    Z=              0.0000  Tot=              0.0000
 Quadrupole moment (field-independent basis, Debye-Ang):
   XX=             -2.8167   YY=             -2.8167   ZZ=             -1.7011
   XY=             -0.0000   XZ=             -0.0000   YZ=              0.0000

 SCF Done:  E(RB3LYP) = -0.934400446704     A.U. after    6 cycles
 SCF Done:  E(RB3LYP) = -0.930099885203     A.U. after    5 cycles
 SCF Done:  E(RB3LYP) = -0.926241161462     A.U. after    6 cycles
 SCF Done:  E(RB3LYP) = -0.922783665065     A.U. after    6 cycles
 SCF Done:  E(RB3LYP) = -0.919690340055     A.U. after    5 cycles
 SCF Done:  E(RB3LYP) = -0.916927376333     A.U. after    6 cycles
 SCF Done:  E(RB3LYP) = -0.914463664539     A.U. after    5 cycles
 SCF Done:  E(RB3LYP) = -0.912270581518     A.U. after    5 cycles
 SCF Done:  E(RB3LYP) = -0.910321692424     A.U. after    5 cycles

                         Standard orientation:
 ---------------------------------------------------------------------
 Center     Atomic      Atomic             Coordinates (Angstroms)
 Number     Number       Type             X           Y           Z
 ---------------------------------------------------------------------
      1          1           0        0.000000    0.000000    1.875000
      2          1           0        0.000000    0.000000   -1.875000
 ---------------------------------------------------------------------

 SCF Done:  E(RB3LYP) = -0.908592539857     A.U. after    5 cycles
 Normal termination of Gaussian 09 at Sat Jun 22 13:39:56 2024.
