 Gaussian 09, Revision D.01,
 Gaussian 09:  EM64L-G09RevD.01 24-Apr-2013

 ------------------------------------------------------
 #p B3LYP/6-31+g(d,p) opt(internal) nosym freq NMR=GIAO
 ------------------------------------------------------

 ---
 DME
 ---
 Symbolic Z-matrix:
 Charge =  0 Multiplicity = 1

 SCF Done:  E(RB3LYP) =  -155.039238188     A.U. after    9 cycles
 SCF Done:  E(RB3LYP) =  -155.041256122     A.U. after    9 cycles
 SCF Done:  E(RB3LYP) =  -155.041322870     A.U. after    8 cycles
 Optimization completed.
    -- Stationary point found.
 Normal termination of Gaussian 09 at Mon May 13 15:02:59 2024.

 ----------------------------------------------------------------------
 #P Geom=AllCheck Guess=TCheck SCRF=Check GenChk RB3LYP/6-31+G(d,p) Fre
 q
 ----------------------------------------------------------------------

 Structure from the checkpoint file:  "/g100_scratch/userexternal/fbuda000/g16_13361992/Gau-26185.chk"
 ---
 DME
 ---
 Charge =  0 Multiplicity = 1

                          Input orientation:
 ---------------------------------------------------------------------
 Center     Atomic      Atomic             Coordinates (Angstroms)
 Number     Number       Type             X           Y           Z
 ---------------------------------------------------------------------
      1          8           0        0.000000    0.000000    0.000000
      2          6           0        0.000000    0.000000    1.414403
      3          6           0        1.304606    0.000000   -0.546373
      4          1           0        1.198940   -0.000000   -1.633604
      5          1           0        1.869581    0.894597   -0.240213
      6          1           0        1.869581   -0.894597   -0.240213
      7          1           0       -1.043611   -0.000000    1.737079
      8          1           0        0.500850   -0.894575    1.817004
      9          1           0        0.500850    0.894575    1.817004
 ---------------------------------------------------------------------

 SCF Done:  E(RB3LYP) =  -155.041322870     A.U. after    1 cycles

      1  O    Isotropic =   323.5257   Anisotropy =    33.4391

      2  C    Isotropic =   132.5421   Anisotropy =    86.7638

      3  C    Isotropic =   132.5799   Anisotropy =    86.7469

      4  H    Isotropic =    27.9207   Anisotropy =     8.3459

      5  H    Isotropic =    28.5458   Anisotropy =     7.5440

      6  H    Isotropic =    28.5458   Anisotropy =     7.5440

      7  H    Isotropic =    27.9215   Anisotropy =     8.3470

      8  H    Isotropic =    28.5449   Anisotropy =     7.5437

      9  H    Isotropic =    28.5449   Anisotropy =     7.5437

 Alpha  occ. eigenvalues --  -19.16012 -10.23203 -10.23203  -1.03771  -0.72620
 Alpha  occ. eigenvalues --   -0.64238  -0.48124  -0.47444  -0.47363  -0.40081
 Alpha  occ. eigenvalues --   -0.38245  -0.32458  -0.26343
 Alpha virt. eigenvalues --    0.01002   0.02904   0.03506   0.04599   0.05450
 Alpha virt. eigenvalues --    0.07167   0.08278   0.11980   0.15908   0.18575
 Alpha virt. eigenvalues --    0.18674   0.19370   0.21468   0.23830   0.25230

 Mulliken charges:
               1
     1  O   -0.344151
     2  C   -0.223880
     3  C   -0.223942
     4  H    0.147066
     5  H    0.124464
     6  H    0.124464
     7  H    0.147069
     8  H    0.124456
     9  H    0.124456
 Sum of Mulliken charges =  -0.00000

 Dipole moment (field-independent basis, Debye):
    X=              1.2142    Y=             -0.0000    Z=              0.8079  Tot=              1.4584
 Quadrupole moment (field-independent basis, Debye-Ang):
   XX=            -19.2105   YY=            -20.5294   ZZ=            -18.1785
   XY=             -0.0000   XZ=             -1.2332   YZ=             -0.0000

  Exact polarizability:  30.350   0.000  28.204  -2.795   0.000  32.688
 Approx polarizability:  38.411   0.000  36.284  -0.731   0.000  39.018

                      1                      2                      3
                      A                      A                      A
 Frequencies --    213.3234               244.0884               409.2041
 Red. masses --      1.0318                 1.3064                 2.2789
 Frc consts  --      0.0277                 0.0459                 0.2248
 IR Inten    --  0.1554E-01              7.365                  2.656

                      4                      5                      6
                      A                      A                      A
 Frequencies --    940.5514              1121.2788              1162.1264
 Red. masses --      4.2187                 1.7275                 1.2159
 Frc consts  --      2.1988                 1.2796                 0.9675
 IR Inten    --   40.98                  41.15                 0.2657E-03

                      7                      8                      9
                      A                      A                      A
 Frequencies --   1191.8062              1200.5765              1264.4913
 Red. masses --      1.3547                 3.0720                 1.5783
 Frc consts  --      1.1337                 2.6089                 1.4868
 IR Inten    --   7.757                  106.6                  5.239

                     10                     11                     12
                      A                      A                      A
 Frequencies --   1463.5494              1485.8871              1488.9517
 Red. masses --      1.1194                 1.0441                 1.1436
 Frc consts  --      1.4127                 1.3582                 1.4938
 IR Inten    --   3.868                 0.1245E-01             0.4671

                     13                     14                     15
                      A                      A                      A
 Frequencies --   1494.8520              1498.8563              1517.4251
 Red. masses --      1.0484                 1.0501                 1.0694
 Frc consts  --      1.3804                 1.3899                 1.4508
 IR Inten    --   14.49                  14.59                  2.327

                     16                     17                     18
                      A                      A                      A
 Frequencies --   2971.3681              2984.4449              3022.9560
 Red. masses --      1.0356                 1.0374                 1.1030
 Frc consts  --      5.3870                 5.4440                 5.9385
 IR Inten    --   66.08                  73.68                  145.0

                     19                     20                     21
                      A                      A                      A
 Frequencies --   3027.4373              3130.1828              3131.1350
 Red. masses --      1.1058                 1.0959                 1.0965
 Frc consts  --      5.9716                 6.3267                 6.3339
 IR Inten    --  0.1755E-01              32.90                  22.73

 - Thermochemistry -
 -------------------
 Temperature   298.150 Kelvin.  Pressure   1.00000 Atm.
 Atom     1 has atomic number  8 and mass  15.99491

 Molecular mass:    46.04186 amu.
 Principal axes and moments of inertia in atomic units:
                           1         2         3
     Eigenvalues --    45.92990 181.83425 204.72232
           X           -0.55395   0.83255  -0.00000
           Y            0.00000   0.00000   1.00000
           Z            0.83255   0.55395  -0.00000
 This molecule is an asymmetric top.
 Rotational symmetry number  1.
 Rotational temperatures (Kelvin)      1.88578     0.47633     0.42308
 Rotational constants (GHZ):          39.29339     9.92520     8.81556
 Zero-point vibrational energy     209134.1 (Joules/Mol)
                                   49.98425 (Kcal/Mol)
 Warning -- explicit consideration of   3 degrees of freedom as
           vibrations may cause significant error
 Vibrational temperatures:    306.92   351.19   588.75  1353.24  1613.27
          (Kelvin)           1672.04  1714.74  1727.36  1819.32  2105.72
                             2137.86  2142.27  2150.76  2156.52  2183.23
                             4275.13  4293.95  4349.35  4355.80  4503.63
                             4505.00

 Zero-point correction=                           0.079655 (Hartree/Particle)
 Thermal correction to Energy=                    0.083989
 Thermal correction to Enthalpy=                  0.084934
 Thermal correction to Gibbs Free Energy=         0.054240
 Sum of electronic and zero-point Energies=           -154.961668
 Sum of electronic and thermal Energies=              -154.957334
 Sum of electronic and thermal Enthalpies=            -154.956389
 Sum of electronic and thermal Free Energies=         -154.987083

                     E (Thermal)             CV                S
                      KCal/Mol        Cal/Mol-Kelvin    Cal/Mol-Kelvin
 Total                   52.704             12.991             64.600
 Electronic               0.000              0.000              0.000
 Translational            0.889              2.981             37.406
 Rotational               0.889              2.981             22.063
 Vibrational             50.927              7.029              5.131
 Vibration     1          0.644              1.821              2.015
 Vibration     2          0.659              1.773              1.773
 Vibration     3          0.774              1.450              0.929

 Optimization completed.
    -- Stationary point found.
 Normal termination of Gaussian 09 at Mon May 13 15:03:07 2024.
