 Gaussian 09, Revision D.01,
 Gaussian 09:  EM64L-G09RevD.01 24-Apr-2013

 ------------------------------------------------------
 #p B3LYP/6-31+g(d,p) opt(internal) nosym freq NMR=GIAO
 ------------------------------------------------------

 ----------------
 tetrametilsilano
 ----------------
 Symbolic Z-matrix:
 Charge =  0 Multiplicity = 1

 SCF Done:  E(RB3LYP) =  -449.072683108     A.U. after   13 cycles
 SCF Done:  E(RB3LYP) =  -449.165464615     A.U. after   11 cycles
 SCF Done:  E(RB3LYP) =  -449.197543875     A.U. after   10 cycles
 SCF Done:  E(RB3LYP) =  -449.209694248     A.U. after    9 cycles
 SCF Done:  E(RB3LYP) =  -449.215002374     A.U. after   10 cycles
 SCF Done:  E(RB3LYP) =  -449.216043236     A.U. after    9 cycles
 SCF Done:  E(RB3LYP) =  -449.216981386     A.U. after    9 cycles
 SCF Done:  E(RB3LYP) =  -449.217252524     A.U. after    8 cycles
 SCF Done:  E(RB3LYP) =  -449.217375299     A.U. after    8 cycles
 SCF Done:  E(RB3LYP) =  -449.217724311     A.U. after   10 cycles
 SCF Done:  E(RB3LYP) =  -449.218325077     A.U. after    7 cycles
 SCF Done:  E(RB3LYP) =  -449.218334408     A.U. after    7 cycles
 SCF Done:  E(RB3LYP) =  -449.218339867     A.U. after    7 cycles
 SCF Done:  E(RB3LYP) =  -449.218343194     A.U. after    7 cycles
 SCF Done:  E(RB3LYP) =  -449.218345092     A.U. after    6 cycles
 SCF Done:  E(RB3LYP) =  -449.218346342     A.U. after    6 cycles
 SCF Done:  E(RB3LYP) =  -449.218347304     A.U. after    6 cycles
 SCF Done:  E(RB3LYP) =  -449.218347895     A.U. after    6 cycles
 SCF Done:  E(RB3LYP) =  -449.218348155     A.U. after    6 cycles
 Optimization completed.
    -- Stationary point found.
 Normal termination of Gaussian 09 at Mon May 13 12:36:55 2024.

 ----------------------------------------------------------------------
 #P Geom=AllCheck Guess=TCheck SCRF=Check GenChk RB3LYP/6-31+G(d,p) Fre
 q
 ----------------------------------------------------------------------

 Structure from the checkpoint file:  "/g100_scratch/userexternal/fbuda000/g16_13359629/Gau-51138.chk"
 ----------------
 tetrametilsilano
 ----------------
 Charge =  0 Multiplicity = 1

                          Input orientation:
 ---------------------------------------------------------------------
 Center     Atomic      Atomic             Coordinates (Angstroms)
 Number     Number       Type             X           Y           Z
 ---------------------------------------------------------------------
      1         14           0        0.000000    0.000000    0.000000
      2          6           0        0.000000    0.000000    1.894978
      3          6           0        1.786547    0.000000   -0.633114
      4          1           0       -1.021415    0.000601    2.293554
      5          1           0        0.510927   -0.884304    2.293904
      6          1           0        0.510969    0.884976    2.292374
      7          1           0        1.819164   -0.000462   -1.729057
      8          1           0        2.333420    0.884584   -0.285839
      9          1           0        2.332979   -0.884824   -0.285577
     10          6           0       -0.892519   -1.546465   -0.635184
     11          1           0       -1.930970   -1.580376   -0.284987
     12          1           0       -0.911733   -1.571948   -1.731199
     13          1           0       -0.396790   -2.462058   -0.291447
     14          6           0       -0.892326    1.547957   -0.631885
     15          1           0       -0.395818    2.462443   -0.286347
     16          1           0       -0.912188    1.576196   -1.727861
     17          1           0       -1.930641    1.581430   -0.281251
 ---------------------------------------------------------------------

 SCF Done:  E(RB3LYP) =  -449.218348155     A.U. after    1 cycles

      1  Si   Isotropic =   405.9716   Anisotropy =     0.3165

      2  C    Isotropic =   192.6689   Anisotropy =     9.3098

      3  C    Isotropic =   192.6122   Anisotropy =     9.4105

      4  H    Isotropic =    31.6506   Anisotropy =     9.7501

      5  H    Isotropic =    31.6493   Anisotropy =     9.7506

      6  H    Isotropic =    31.6505   Anisotropy =     9.7345

      7  H    Isotropic =    31.6550   Anisotropy =     9.7193

      8  H    Isotropic =    31.6527   Anisotropy =     9.7527

      9  H    Isotropic =    31.6517   Anisotropy =     9.7469

     10  C    Isotropic =   192.6438   Anisotropy =     9.2776

     11  H    Isotropic =    31.6528   Anisotropy =     9.7486

     12  H    Isotropic =    31.6530   Anisotropy =     9.7315

     13  H    Isotropic =    31.6504   Anisotropy =     9.7464

     14  C    Isotropic =   192.6281   Anisotropy =     9.2930

     15  H    Isotropic =    31.6517   Anisotropy =     9.7416

     16  H    Isotropic =    31.6527   Anisotropy =     9.7374

     17  H    Isotropic =    31.6528   Anisotropy =     9.7427

 Alpha  occ. eigenvalues --  -66.11976 -10.16213 -10.16208 -10.16206 -10.16205
 Alpha  occ. eigenvalues --   -5.26402  -3.62276  -3.62276  -3.62275  -0.71868
 Alpha  occ. eigenvalues --   -0.67644  -0.67634  -0.67630  -0.45786  -0.41201
 Alpha  occ. eigenvalues --   -0.41197  -0.41195  -0.39702  -0.39698  -0.37955
 Alpha  occ. eigenvalues --   -0.37954  -0.37951  -0.29672  -0.29661  -0.29660
 Alpha virt. eigenvalues --   -0.01187   0.01949   0.01952   0.01953   0.05690
 Alpha virt. eigenvalues --    0.05691   0.05692   0.07277   0.07369   0.07372
 Alpha virt. eigenvalues --    0.10222   0.10223   0.10224   0.10989   0.10994

 Mulliken charges:
               1
     1  Si   1.005801
     2  C   -0.724594
     3  C   -0.725068
     4  H    0.157820
     5  H    0.157822
     6  H    0.157818
     7  H    0.157768
     8  H    0.157778
     9  H    0.157771
    10  C   -0.724810
    11  H    0.157806
    12  H    0.157788
    13  H    0.157798
    14  C   -0.724830
    15  H    0.157772
    16  H    0.157755
    17  H    0.157806
 Sum of Mulliken charges =   0.00000

 Dipole moment (field-independent basis, Debye):
    X=             -0.0010    Y=             -0.0010    Z=              0.0030  Tot=              0.0033
 Quadrupole moment (field-independent basis, Debye-Ang):
   XX=            -43.0456   YY=            -43.0486   ZZ=            -43.0460
   XY=              0.0011   XZ=              0.0018   YZ=             -0.0008

  Exact polarizability:  74.406  -0.006  74.412  -0.000   0.015  74.432
 Approx polarizability:  96.914  -0.003  96.916   0.002   0.013  96.942

                      1                      2                      3
                      A                      A                      A
 Frequencies --    133.3710               152.4497               161.4138
 Red. masses --      1.0106                 1.0257                 1.0266
 Frc consts  --      0.0106                 0.0140                 0.0158
 IR Inten    --  0.7245E-03             0.4427E-02             0.1955E-04

                      4                      5                      6
                      A                      A                      A
 Frequencies --    162.7834               182.1067               183.4123
 Red. masses --      1.0276                 2.2543                 2.2779
 Frc consts  --      0.0160                 0.0440                 0.0451
 IR Inten    --  0.4367E-02             0.1743E-02             0.6936E-03

                      7                      8                      9
                      A                      A                      A
 Frequencies --    228.9676               229.2286               234.0495
 Red. masses --      2.3528                 2.3551                 2.3696
 Frc consts  --      0.0727                 0.0729                 0.0765
 IR Inten    --   3.940                  3.975                  3.978

                     10                     11                     12
                      A                      A                      A
 Frequencies --    573.6185               686.2303               686.7299
 Red. masses --      3.5850                 2.6970                 2.3055
 Frc consts  --      0.6950                 0.7483                 0.6406
 IR Inten    --  0.1066E-04              16.07                  13.97

                     13                     14                     15
                      A                      A                      A
 Frequencies --    687.5277               688.8265               689.7433
 Red. masses --      2.9524                 1.1986                 1.2980
 Frc consts  --      0.8223                 0.3351                 0.3638
 IR Inten    --   16.96                 0.6960                  2.869

                     16                     17                     18
                      A                      A                      A
 Frequencies --    690.8883               836.2771               836.6887
 Red. masses --      1.2238                 1.3087                 1.3074
 Frc consts  --      0.3442                 0.5393                 0.5392
 IR Inten    --   1.450                 0.1401E-03             0.8698E-02

                     19                     20                     21
                      A                      A                      A
 Frequencies --    893.5683               893.8381               894.8983
 Red. masses --      1.7146                 1.7117                 1.7036
 Frc consts  --      0.8066                 0.8058                 0.8038
 IR Inten    --   124.1                  123.8                  123.7

                     22                     23                     24
                      A                      A                      A
 Frequencies --   1296.7130              1297.3980              1298.6636
 Red. masses --      1.2509                 1.2501                 1.2495
 Frc consts  --      1.2393                 1.2397                 1.2416
 IR Inten    --   39.73                  39.83                  39.76

                     25                     26                     27
                      A                      A                      A
 Frequencies --   1312.5924              1461.8503              1462.3217
 Red. masses --      1.2159                 1.0545                 1.0546
 Frc consts  --      1.2343                 1.3278                 1.3287
 IR Inten    --  0.2359                 0.1076E-01             0.1993E-02

                     28                     29                     30
                      A                      A                      A
 Frequencies --   1462.9321              1466.0183              1467.0670
 Red. masses --      1.0545                 1.0520                 1.0519
 Frc consts  --      1.3296                 1.3321                 1.3339
 IR Inten    --  0.1047E-01             0.1504E-01             0.2605E-02

                     31                     32                     33
                      A                      A                      A
 Frequencies --   1482.0805              1482.4809              1482.5375
 Red. masses --      1.0467                 1.0468                 1.0468
 Frc consts  --      1.3546                 1.3555                 1.3556
 IR Inten    --   10.65                  10.67                  10.69

                     34                     35                     36
                      A                      A                      A
 Frequencies --   3028.7246              3029.1140              3029.1887
 Red. masses --      1.0351                 1.0351                 1.0351
 Frc consts  --      5.5943                 5.5957                 5.5960
 IR Inten    --   16.93                  17.16                  17.24

                     37                     38                     39
                      A                      A                      A
 Frequencies --   3031.5081              3104.1699              3104.3354
 Red. masses --      1.0349                 1.1005                 1.1006
 Frc consts  --      5.6035                 6.2480                 6.2489
 IR Inten    --  0.8767E-01             0.1605                 0.1165

                     40                     41                     42
                      A                      A                      A
 Frequencies --   3104.8969              3105.2842              3105.3724
 Red. masses --      1.1007                 1.1007                 1.1007
 Frc consts  --      6.2520                 6.2534                 6.2538
 IR Inten    --  0.6688E-01             0.6793                 0.3766

                     43                     44                     45
                      A                      A                      A
 Frequencies --   3107.0593              3107.2996              3107.7082
 Red. masses --      1.0998                 1.0999                 1.0999
 Frc consts  --      6.2558                 6.2570                 6.2586
 IR Inten    --   47.49                  47.21                  47.46

 - Thermochemistry -
 -------------------
 Temperature   298.150 Kelvin.  Pressure   1.00000 Atm.
 Atom     1 has atomic number 14 and mass  27.97693

 Molecular mass:    88.07083 amu.
 Principal axes and moments of inertia in atomic units:
                           1         2         3
     Eigenvalues --   591.49283 592.10090 592.22226
           X           -0.06182  -0.44925   0.89126
           Y            0.43136   0.79324   0.42976
           Z            0.90006  -0.41102  -0.14475
 This molecule is an asymmetric top.
 Rotational symmetry number  1.
 Warning -- assumption of classical behavior for rotation
           may cause significant error
 Rotational temperatures (Kelvin)      0.14643     0.14628     0.14625
 Rotational constants (GHZ):           3.05116     3.04803     3.04741
 Zero-point vibrational energy     386776.2 (Joules/Mol)
                                   92.44173 (Kcal/Mol)
 Warning -- explicit consideration of  10 degrees of freedom as
           vibrations may cause significant error
 Vibrational temperatures:    191.89   219.34   232.24   234.21   262.01
          (Kelvin)            263.89   329.43   329.81   336.74   825.31
                              987.33   988.05   989.20   991.07   992.39
                              994.03  1203.21  1203.81  1285.64  1286.03
                             1287.56  1865.68  1866.66  1868.48  1888.53
                             2103.27  2103.95  2104.83  2109.27  2110.78
                             2132.38  2132.96  2133.04  4357.65  4358.21
                             4358.32  4361.66  4466.20  4466.44  4467.25
                             4467.81  4467.93  4470.36  4470.71  4471.29

 Zero-point correction=                           0.147315 (Hartree/Particle)
 Thermal correction to Energy=                    0.156695
 Thermal correction to Enthalpy=                  0.157639
 Thermal correction to Gibbs Free Energy=         0.114687
 Sum of electronic and zero-point Energies=           -449.071033
 Sum of electronic and thermal Energies=              -449.061653
 Sum of electronic and thermal Enthalpies=            -449.060709
 Sum of electronic and thermal Free Energies=         -449.103661

                     E (Thermal)             CV                S
                      KCal/Mol        Cal/Mol-Kelvin    Cal/Mol-Kelvin
 Total                   98.328             32.831             90.401
 Electronic               0.000              0.000              0.000
 Translational            0.889              2.981             39.339
 Rotational               0.889              2.981             26.831
 Vibrational             96.550             26.870             24.231
 Vibration     1          0.613              1.920              2.897
 Vibration     2          0.619              1.900              2.641
 Vibration     3          0.622              1.890              2.533
 Vibration     4          0.623              1.888              2.517
 Vibration     5          0.630              1.864              2.307
 Vibration     6          0.631              1.862              2.293
 Vibration     7          0.652              1.797              1.887
 Vibration     8          0.652              1.796              1.885
 Vibration     9          0.654              1.789              1.848
 Vibration    10          0.930              1.088              0.497

 Normal termination of Gaussian 09 at Mon May 13 12:42:12 2024.
